--------------------------------------------------------------------------
Initialization of PSM library failed.

  Error: PSM is in the finalized state
--------------------------------------------------------------------------
--------------------------------------------------------------------------
The OpenFabrics (openib) BTL failed to initialize while trying to
allocate some locked memory.  This typically can indicate that the
memlock limits are set too low.  For most HPC installations, the
memlock limits should be set to "unlimited".  The failure occured
here:

  Local host:    node2001
  OMPI source:   btl_openib.c:753
  Function:      ompi_free_list_init_ex_new()
  Device:        qib0
  Memlock limit: 65536

You may need to consult with your system administrator to get this
problem fixed.  This FAQ entry on the Open MPI web site may also be
helpful:

    http://www.open-mpi.org/faq/?category=openfabrics#ib-locked-pages
--------------------------------------------------------------------------

*************** JDFTx 1.4.2 (git hash 74b6e54) ***************

Start date and time: Sat Apr 27 18:42:01 2019
Executable /home/jfm343/JDFTXDIR/build/jdftx with command-line: -i Vacuum.in
Running on hosts (process indices):  node2001.physics.cornell.edu (0)
Divided in process groups (process indices):  0 (0)
Resource initialization completed at t[s]:      0.00
Run totals: 1 processes, 12 threads, 0 GPUs


Input parsed successfully to the following command list (including defaults):

basis kpoint-dependent
coords-type Lattice
core-overlap-check vector
coulomb-interaction Slab 001
coulomb-truncation-embed 0 0 0
davidson-band-ratio 1.1
dump End State IonicPositions ElecDensity EigStats Ecomponents
dump-name 100_4-Vacuum.$VAR
elec-cutoff 20 100
elec-eigen-algo Davidson
elec-ex-corr gga-PBEsol
elec-smearing Fermi 0.01
electronic-minimize  \
	dirUpdateScheme      FletcherReeves \
	linminMethod         DirUpdateRecommended \
	nIterations          200 \
	history              15 \
	knormThreshold       0 \
	energyDiffThreshold  1e-08 \
	nEnergyDiff          2 \
	alphaTstart          1 \
	alphaTmin            1e-10 \
	updateTestStepSize   yes \
	alphaTreduceFactor   0.1 \
	alphaTincreaseFactor 3 \
	nAlphaAdjustMax      3 \
	wolfeEnergy          0.0001 \
	wolfeGradient        0.9 \
	fdTest               no
exchange-regularization WignerSeitzTruncated
fluid None
fluid-ex-corr lda-TF lda-PZ
fluid-gummel-loop 10 1.000000e-05
fluid-minimize  \
	dirUpdateScheme      PolakRibiere \
	linminMethod         DirUpdateRecommended \
	nIterations          100 \
	history              15 \
	knormThreshold       0 \
	energyDiffThreshold  0 \
	nEnergyDiff          2 \
	alphaTstart          1 \
	alphaTmin            1e-10 \
	updateTestStepSize   yes \
	alphaTreduceFactor   0.1 \
	alphaTincreaseFactor 3 \
	nAlphaAdjustMax      3 \
	wolfeEnergy          0.0001 \
	wolfeGradient        0.9 \
	fdTest               no
fluid-solvent H2O 55.338 ScalarEOS \
	epsBulk 78.4 \
	pMol 0.92466 \
	epsInf 1.77 \
	Pvap 1.06736e-10 \
	sigmaBulk 4.62e-05 \
	Rvdw 2.61727 \
	Res 1.42 \
	tauNuc 343133 \
	omegaEl 0.55124 \
	gammaEl 0.257245
forces-output-coords Positions
ion H   0.611000000000000   0.664000000000000   0.312000000000000 1
ion H   0.168000000000000   0.405000000000000   0.312000000000000 1
ion C   0.500000000000000   0.500000000000000   0.312000000000000 1
ion O   0.558000000000000   0.289000000000000   0.312000000000000 1
ion O   0.263000000000000   0.549000000000000   0.312000000000000 1
ion Pt   0.000000000000000   0.000000000000000  -0.166700000000000 0
ion Pt   0.500000000000000   0.500000000000000  -0.166700000000000 0
ion Pt   0.000000000000000   0.500000000000000  -0.166700000000000 0
ion Pt   0.500000000000000   0.000000000000000  -0.166700000000000 0
ion Pt   0.750000000000000   0.250000000000000  -0.083300000000000 0
ion Pt   0.250000000000000   0.750000000000000  -0.083300000000000 0
ion Pt   0.250000000000000   0.250000000000000  -0.083300000000000 0
ion Pt   0.750000000000000   0.750000000000000  -0.083300000000000 0
ion Pt   0.500000000000000   0.000000000000000   0.000000000000000 1
ion Pt   0.000000000000000   0.000000000000000   0.000000000000000 1
ion Pt   0.000000000000000   0.500000000000000   0.000000000000000 1
ion Pt   0.500000000000000   0.500000000000000   0.000000000000000 1
ion Pt   0.750000000000000   0.250000000000000   0.083300000000000 1
ion Pt   0.250000000000000   0.750000000000000   0.083300000000000 1
ion Pt   0.250000000000000   0.250000000000000   0.083300000000000 1
ion Pt   0.750000000000000   0.750000000000000   0.083300000000000 1
ion Pt   0.000000000000000   0.000000000000000   0.166700000000000 1
ion Pt   0.000000000000000   0.500000000000000   0.166700000000000 1
ion Pt   0.500000000000000   0.000000000000000   0.166700000000000 1
ion Pt   0.500000000000000   0.500000000000000   0.166700000000000 1
ion-species GBRV/$ID_pbesol.uspp
ion-width 0
ionic-minimize  \
	dirUpdateScheme      L-BFGS \
	linminMethod         DirUpdateRecommended \
	nIterations          5 \
	history              15 \
	knormThreshold       0.0001 \
	energyDiffThreshold  1e-06 \
	nEnergyDiff          2 \
	alphaTstart          1 \
	alphaTmin            1e-10 \
	updateTestStepSize   yes \
	alphaTreduceFactor   0.1 \
	alphaTincreaseFactor 3 \
	nAlphaAdjustMax      3 \
	wolfeEnergy          0.0001 \
	wolfeGradient        0.9 \
	fdTest               no
kpoint   0.000000000000   0.000000000000   0.000000000000  1.00000000000000
kpoint-folding 4 4 1 
latt-move-scale 1 1 1
latt-scale 1 1 1 
lattice Tetragonal 10.4793 44.446
lattice-minimize  \
	dirUpdateScheme      L-BFGS \
	linminMethod         DirUpdateRecommended \
	nIterations          0 \
	history              15 \
	knormThreshold       0 \
	energyDiffThreshold  1e-06 \
	nEnergyDiff          2 \
	alphaTstart          1 \
	alphaTmin            1e-10 \
	updateTestStepSize   yes \
	alphaTreduceFactor   0.1 \
	alphaTincreaseFactor 3 \
	nAlphaAdjustMax      3 \
	wolfeEnergy          0.0001 \
	wolfeGradient        0.9 \
	fdTest               no
lcao-params -1 1e-06 0.01
pcm-variant GLSSA13
spintype no-spin
subspace-rotation-factor 1 yes
symmetries automatic
symmetry-threshold 0.0001



---------- Setting up symmetries ----------

Found 16 point-group symmetries of the bravais lattice
Found 1 space-group symmetries with basis
Applied RMS atom displacement 0 bohrs to make symmetries exact.

---------- Initializing the Grid ----------
R = 
[    10.4793          0          0  ]
[          0    10.4793          0  ]
[          0          0     44.446  ]
unit cell volume = 4880.87
G =
[   0.599581          0          0  ]
[          0   0.599581          0  ]
[          0          0   0.141367  ]
Minimum fftbox size, Smin = [  48  48  204  ]
Chosen fftbox size, S = [  48  48  210  ]

---------- Initializing tighter grid for wavefunction operations ----------
R = 
[    10.4793          0          0  ]
[          0    10.4793          0  ]
[          0          0     44.446  ]
unit cell volume = 4880.87
G =
[   0.599581          0          0  ]
[          0   0.599581          0  ]
[          0          0   0.141367  ]
Minimum fftbox size, Smin = [  44  44  180  ]
Chosen fftbox size, S = [  48  48  180  ]

---------- Exchange Correlation functional ----------
Initalized PBEsol GGA exchange.
Initalized PBEsol GGA correlation.

---------- Setting up pseudopotentials ----------
Width of ionic core gaussian charges (only for fluid interactions / plotting) set to 0

Reading pseudopotential file '/home/jfm343/JDFTXDIR/build/pseudopotentials/GBRV/h_pbesol.uspp':
  Title: H.  Created by USPP 7.3.6 on 22-9-15
  Reference state energy: -0.449841.  1 valence electrons in orbitals:
    |100>  occupation: 1  eigenvalue: -0.232690
  lMax: 0  lLocal: 1  QijEcut: 6
  2 projectors sampled on a log grid with 395 points:
    l: 0  eig: -0.232690  rCut: 1.2
    l: 0  eig: 1.000000  rCut: 1.2
  Transforming local potential to a uniform radial grid of dG=0.02 with 1265 points.
  Transforming nonlocal projectors to a uniform radial grid of dG=0.02 with 432 points.
  Transforming density augmentations to a uniform radial grid of dG=0.02 with 1265 points.
  Transforming atomic orbitals to a uniform radial grid of dG=0.02 with 432 points.
  Core radius for overlap checks: 1.20 bohrs.

Reading pseudopotential file '/home/jfm343/JDFTXDIR/build/pseudopotentials/GBRV/c_pbesol.uspp':
  Title: C.  Created by USPP 7.3.6 on 3-2-2014
  Reference state energy: -5.383511.  4 valence electrons in orbitals:
    |200>  occupation: 2  eigenvalue: -0.501126
    |210>  occupation: 2  eigenvalue: -0.192448
  lMax: 1  lLocal: 2  QijEcut: 5
  4 projectors sampled on a log grid with 503 points:
    l: 0  eig: -0.501126  rCut: 1.3
    l: 0  eig: 0.000000  rCut: 1.3
    l: 1  eig: -0.192448  rCut: 1.3
    l: 1  eig: 0.000000  rCut: 1.3
  Partial core density with radius 1.1
  Transforming core density to a uniform radial grid of dG=0.02 with 1265 points.
  Transforming local potential to a uniform radial grid of dG=0.02 with 1265 points.
  Transforming nonlocal projectors to a uniform radial grid of dG=0.02 with 432 points.
  Transforming density augmentations to a uniform radial grid of dG=0.02 with 1265 points.
  Transforming atomic orbitals to a uniform radial grid of dG=0.02 with 432 points.
  Core radius for overlap checks: 1.30 bohrs.

Reading pseudopotential file '/home/jfm343/JDFTXDIR/build/pseudopotentials/GBRV/o_pbesol.uspp':
  Title: O.  Created by USPP 7.3.6 on 3-2-2014
  Reference state energy: -15.849885.  6 valence electrons in orbitals:
    |200>  occupation: 2  eigenvalue: -0.873214
    |210>  occupation: 4  eigenvalue: -0.330058
  lMax: 2  lLocal: 2  QijEcut: 6
  5 projectors sampled on a log grid with 511 points:
    l: 0  eig: -0.873214  rCut: 1.25
    l: 0  eig: 0.000000  rCut: 1.25
    l: 1  eig: -0.330058  rCut: 1.25
    l: 1  eig: 0.000000  rCut: 1.25
    l: 2  eig: 1.000000  rCut: 1.25
  Partial core density with radius 0.7
  Transforming core density to a uniform radial grid of dG=0.02 with 1265 points.
  Transforming local potential to a uniform radial grid of dG=0.02 with 1265 points.
  Transforming nonlocal projectors to a uniform radial grid of dG=0.02 with 432 points.
  Transforming density augmentations to a uniform radial grid of dG=0.02 with 1265 points.
  Transforming atomic orbitals to a uniform radial grid of dG=0.02 with 432 points.
  Core radius for overlap checks: 1.25 bohrs.

Reading pseudopotential file '/home/jfm343/JDFTXDIR/build/pseudopotentials/GBRV/pt_pbesol.uspp':
  Title: Pt.  Created by USPP 7.3.6 on 22-9-15
  Reference state energy: -104.899005.  16 valence electrons in orbitals:
    |510>  occupation: 6  eigenvalue: -2.158847
    |520>  occupation: 9.5  eigenvalue: -0.336311
    |600>  occupation: 0  eigenvalue: -0.320324
    |610>  occupation: 0  eigenvalue: -0.119800
  lMax: 2  lLocal: 3  QijEcut: 5.5
  6 projectors sampled on a log grid with 745 points:
    l: 0  eig: -0.320324  rCut: 2.45
    l: 0  eig: 1.500000  rCut: 2.45
    l: 1  eig: -2.158847  rCut: 1.6
    l: 1  eig: -0.119800  rCut: 1.6
    l: 2  eig: -0.500000  rCut: 1.6
    l: 2  eig: -0.336311  rCut: 1.6
  Partial core density with radius 1.1
  Transforming core density to a uniform radial grid of dG=0.02 with 1265 points.
  Transforming local potential to a uniform radial grid of dG=0.02 with 1265 points.
  Transforming nonlocal projectors to a uniform radial grid of dG=0.02 with 432 points.
  Transforming density augmentations to a uniform radial grid of dG=0.02 with 1265 points.
  Transforming atomic orbitals to a uniform radial grid of dG=0.02 with 432 points.
  Core radius for overlap checks: 2.45 bohrs.

Initialized 4 species with 25 total atoms.

Folded 1 k-points by 4x4x1 to 16 k-points.

---------- Setting up k-points, bands, fillings ----------
Adding inversion symmetry to k-mesh for non-inversion-symmetric unit cell.
Reduced to 10 k-points under symmetry. 
Computing the number of bands and number of electrons
Calculating initial fillings.
nElectrons: 338.000000   nBands: 254   nStates: 10

----- Setting up reduced wavefunction bases (one per k-point) -----
average nbasis = 20861.812 , ideal nbasis = 20851.448

---------- Setting up coulomb interaction ----------
Setting up double-sized grid for truncated Coulomb potentials:
R = 
[    10.4793          0          0  ]
[          0    10.4793          0  ]
[          0          0     88.892  ]
unit cell volume = 9761.74
G =
[   0.599581          0          0  ]
[          0   0.599581          0  ]
[          0          0  0.0706834  ]
Chosen fftbox size, S = [  48  48  420  ]
Integer grid location selected as the embedding center:
   Grid: [  0  0  0  ]
   Lattice: [  0  0  0  ]
   Cartesian: [  0  0  0  ]
Constructing Wigner-Seitz cell: 6 faces (6 quadrilaterals, 0 hexagons)
Range-separation parameter for embedded mesh potentials due to point charges: 0.589462 bohrs.
Initialized slab truncation along lattice direction 001

---------- Setting up 2D ewald sum ----------
Optimum gaussian width for ewald sums = 6.251509 bohr.
Real space sums over 225 unit cells with max indices [  7  7  0  ]
Reciprocal space sums over 81 terms with max indices [  4  4  0  ]

---------- Allocating electronic variables ----------
Initializing wave functions:  linear combination of atomic orbitals
H pseudo-atom occupations:   s ( 1 )
C pseudo-atom occupations:   s ( 2 )  p ( 2 )
O pseudo-atom occupations:   s ( 2 )  p ( 4 )
Pt pseudo-atom occupations:   s ( 0 )  p ( 6 0 )  d ( 10 )
	FillingsUpdate:  mu: -2.999341543  nElectrons: 338.000000
LCAOMinimize: Iter:   0  F: -1802.8623075355435503  |grad|_K:  3.965e-02  alpha:  1.000e+00
LCAOMinimize: 	Step increased F by 1.017983e+03, reducing alpha to 2.003074e-02.
	FillingsUpdate:  mu: -1.355408745  nElectrons: 338.000000
LCAOMinimize: Iter:   1  F: -1807.1540507808504117  |grad|_K:  5.349e-02  alpha:  2.003e-02  linmin:  1.233e-01  cgtest: -3.804e-01  t[s]:    457.62
	FillingsUpdate:  mu: -1.346857548  nElectrons: 338.000000
LCAOMinimize: Iter:   2  F: -1807.1542346173807800  |grad|_K:  5.368e-02  alpha:  5.738e-05  linmin:  1.524e-04  cgtest:  9.992e-01  t[s]:    569.43
LCAOMinimize: 	Predicted alpha/alphaT>3.000000, increasing alphaT to 1.721470e-04.
LCAOMinimize: 	Predicted alpha/alphaT>3.000000, increasing alphaT to 5.164410e-04.
LCAOMinimize: 	Predicted alpha/alphaT>3.000000, increasing alphaT to 1.549323e-03.
	FillingsUpdate:  mu: -1.521449792  nElectrons: 338.000000
LCAOMinimize: Iter:   3  F: -1813.0048742763383416  |grad|_K:  2.255e-02  alpha:  8.283e-03  linmin:  2.535e-01  cgtest: -7.764e-01  t[s]:    740.41
LCAOMinimize: 	Bad step direction: g.d > 0.
LCAOMinimize: 	Undoing step.
LCAOMinimize: 	Step failed: resetting search direction.
	FillingsUpdate:  mu: -1.521449792  nElectrons: 338.000000
LCAOMinimize: Iter:   4  F: -1813.0048742763092378  |grad|_K:  2.255e-02  alpha:  0.000e+00
	FillingsUpdate:  mu: -1.228972306  nElectrons: 338.000000
LCAOMinimize: Iter:   5  F: -1814.3214157849379262  |grad|_K:  1.363e-02  alpha:  7.945e-03  linmin:  9.884e-03  cgtest: -2.782e-01  t[s]:    914.66
LCAOMinimize: 	Wrong curvature in test step, increasing alphaT to 2.383490e-02.
	FillingsUpdate:  mu: -0.829454842  nElectrons: 338.000000
LCAOMinimize: Iter:   6  F: -1815.3404656806342246  |grad|_K:  1.988e-02  alpha: -3.868e-02  linmin: -7.288e-02  cgtest:  7.935e-01  t[s]:   1004.90
LCAOMinimize: 	Step increased F by 9.793428e+01, reducing alpha to 1.525852e-02.
	FillingsUpdate:  mu: -0.012117457  nElectrons: 338.000000
LCAOMinimize: Iter:   7  F: -1816.6980325682641251  |grad|_K:  1.879e-02  alpha:  1.526e-02  linmin:  1.192e-01  cgtest: -7.181e-01  t[s]:   1195.92
LCAOMinimize: 	Bad step direction: g.d > 0.
LCAOMinimize: 	Undoing step.
LCAOMinimize: 	Step failed: resetting search direction.
	FillingsUpdate:  mu: -0.012117457  nElectrons: 338.000000
LCAOMinimize: Iter:   8  F: -1816.6980325682495732  |grad|_K:  1.879e-02  alpha:  0.000e+00
	FillingsUpdate:  mu: -0.305442478  nElectrons: 338.000000
LCAOMinimize: Iter:   9  F: -1817.4007879535249685  |grad|_K:  6.200e-03  alpha:  6.294e-03  linmin:  2.247e-02  cgtest: -5.498e-02  t[s]:   1371.99
LCAOMinimize: 	Predicted alpha/alphaT>3.000000, increasing alphaT to 1.888303e-02.
	FillingsUpdate:  mu: -0.581022136  nElectrons: 338.000000
LCAOMinimize: Iter:  10  F: -1817.8382951044375204  |grad|_K:  3.632e-03  alpha:  3.598e-02  linmin:  1.482e-03  cgtest:  6.961e-02  t[s]:   1512.86
	FillingsUpdate:  mu: -0.174982655  nElectrons: 338.000000
LCAOMinimize: Iter:  11  F: -1818.2412879050109495  |grad|_K:  8.816e-03  alpha:  9.306e-02  linmin: -2.191e-03  cgtest:  4.665e-03  t[s]:   1623.55
	FillingsUpdate:  mu: -0.182498869  nElectrons: 338.000000
LCAOMinimize: Iter:  12  F: -1818.3878277161372807  |grad|_K:  5.988e-03  alpha:  3.283e-03  linmin: -6.971e-02  cgtest:  9.950e-01  t[s]:   1734.75
LCAOMinimize: Encountered beta<0, resetting CG.
	FillingsUpdate:  mu: -0.301400056  nElectrons: 338.000000
LCAOMinimize: Iter:  13  F: -1818.4625503755607951  |grad|_K:  1.672e-03  alpha:  6.405e-03  linmin: -3.222e-03  cgtest:  1.258e-02  t[s]:   1846.89
LCAOMinimize: 	Predicted alpha/alphaT>3.000000, increasing alphaT to 1.921406e-02.
LCAOMinimize: 	Predicted alpha/alphaT>3.000000, increasing alphaT to 5.764219e-02.
LCAOMinimize: 	Predicted alpha/alphaT>3.000000, increasing alphaT to 1.729266e-01.
	FillingsUpdate:  mu: -0.246285147  nElectrons: 338.000000
LCAOMinimize: Iter:  14  F: -1818.6359247602608775  |grad|_K:  2.911e-03  alpha:  2.062e-01  linmin:  1.648e-02  cgtest: -2.131e-01  t[s]:   2015.95
	FillingsUpdate:  mu: -0.262496699  nElectrons: 338.000000
LCAOMinimize: Iter:  15  F: -1818.6507864815523590  |grad|_K:  2.140e-03  alpha:  3.959e-03  linmin: -7.206e-02  cgtest:  9.330e-01  t[s]:   2128.91
LCAOMinimize: Encountered beta<0, resetting CG.
LCAOMinimize: 	Predicted alpha/alphaT>3.000000, increasing alphaT to 1.187837e-02.
	FillingsUpdate:  mu: -0.220630154  nElectrons: 338.000000
LCAOMinimize: Iter:  16  F: -1818.6781179199251710  |grad|_K:  2.628e-03  alpha:  1.831e-02  linmin: -1.561e-03  cgtest:  8.456e-03  t[s]:   2267.55
	FillingsUpdate:  mu: -0.204907984  nElectrons: 338.000000
LCAOMinimize: Iter:  17  F: -1818.7358020247920649  |grad|_K:  1.227e-03  alpha:  2.604e-02  linmin:  2.120e-02  cgtest: -3.411e-01  t[s]:   2377.09
	FillingsUpdate:  mu: -0.209957513  nElectrons: 338.000000
LCAOMinimize: Iter:  18  F: -1818.7478565779849760  |grad|_K:  1.395e-03  alpha:  2.717e-02  linmin:  3.443e-04  cgtest:  6.969e-02  t[s]:   2489.47
	FillingsUpdate:  mu: -0.233651353  nElectrons: 338.000000
LCAOMinimize: Iter:  19  F: -1818.7597606961883230  |grad|_K:  1.206e-03  alpha:  1.908e-02  linmin: -2.995e-04  cgtest: -8.044e-02  t[s]:   2597.95
	FillingsUpdate:  mu: -0.254518698  nElectrons: 338.000000
LCAOMinimize: Iter:  20  F: -1818.7779506769988984  |grad|_K:  1.685e-03  alpha:  3.829e-02  linmin: -3.169e-04  cgtest:  1.506e-02  t[s]:   2709.37
	FillingsUpdate:  mu: -0.238704673  nElectrons: 338.000000
LCAOMinimize: Iter:  21  F: -1818.8034975110842879  |grad|_K:  1.861e-03  alpha:  2.755e-02  linmin:  2.518e-05  cgtest:  2.821e-02  t[s]:   2820.16
	FillingsUpdate:  mu: -0.240271078  nElectrons: 338.000000
LCAOMinimize: Iter:  22  F: -1818.8247930689303757  |grad|_K:  1.032e-03  alpha:  1.876e-02  linmin:  5.132e-05  cgtest: -8.608e-03  t[s]:   2930.58
	FillingsUpdate:  mu: -0.230044057  nElectrons: 338.000000
LCAOMinimize: Iter:  23  F: -1818.8293919161651502  |grad|_K:  5.037e-04  alpha:  1.329e-02  linmin: -2.430e-05  cgtest: -8.139e-04  t[s]:   3040.50
	FillingsUpdate:  mu: -0.222793049  nElectrons: 338.000000
LCAOMinimize: Iter:  24  F: -1818.8305453134430536  |grad|_K:  2.871e-04  alpha:  1.398e-02  linmin:  9.456e-04  cgtest: -8.733e-03  t[s]:   3153.77
	FillingsUpdate:  mu: -0.218886131  nElectrons: 338.000000
LCAOMinimize: Iter:  25  F: -1818.8311351985530564  |grad|_K:  2.871e-04  alpha:  2.206e-02  linmin: -1.171e-04  cgtest: -1.367e-03  t[s]:   3264.35
	FillingsUpdate:  mu: -0.220320201  nElectrons: 338.000000
LCAOMinimize: Iter:  26  F: -1818.8318701272742146  |grad|_K:  3.049e-04  alpha:  2.741e-02  linmin:  1.320e-04  cgtest: -1.914e-02  t[s]:   3375.99
	FillingsUpdate:  mu: -0.228593311  nElectrons: 338.000000
LCAOMinimize: Iter:  27  F: -1818.8324813013016410  |grad|_K:  2.122e-04  alpha:  2.028e-02  linmin: -1.014e-04  cgtest:  3.905e-03  t[s]:   3489.03
	FillingsUpdate:  mu: -0.234672472  nElectrons: 338.000000
LCAOMinimize: Iter:  28  F: -1818.8327120733299580  |grad|_K:  1.449e-04  alpha:  1.575e-02  linmin:  3.175e-05  cgtest: -2.313e-03  t[s]:   3601.34
	FillingsUpdate:  mu: -0.239389519  nElectrons: 338.000000
LCAOMinimize: Iter:  29  F: -1818.8328601044363495  |grad|_K:  1.425e-04  alpha:  2.166e-02  linmin: -3.501e-04  cgtest:  2.620e-03  t[s]:   3710.51
	FillingsUpdate:  mu: -0.243833483  nElectrons: 338.000000
LCAOMinimize: Iter:  30  F: -1818.8331082277481983  |grad|_K:  2.112e-04  alpha:  3.752e-02  linmin:  7.656e-05  cgtest: -6.031e-03  t[s]:   3822.44
LCAOMinimize: None of the convergence criteria satisfied after 30 iterations.


---- Citations for features of the code used in this run ----

   Software package:
      R. Sundararaman, K. Letchworth-Weaver, K.A. Schwarz, D. Gunceler, Y. Ozhabes and T.A. Arias, 'JDFTx: software for joint density-functional theory', SoftwareX 6, 278 (2017)

   gga-PBEsol exchange-correlation functional:
      J.P. Perdew et al., Phys. Rev. Lett. 100, 136406 (2008)

   Pseudopotentials:
      KF Garrity, JW Bennett, KM Rabe and D Vanderbilt, Comput. Mater. Sci. 81, 446 (2014)

   Truncated Coulomb potentials:
      R. Sundararaman and T.A. Arias, Phys. Rev. B 87, 165122 (2013)

   Total energy minimization with Auxiliary Hamiltonian:
      C. Freysoldt, S. Boeck, and J. Neugebauer, Phys. Rev. B 79, 241103(R) (2009)

This list may not be complete. Please suggest additional citations or
report any other bugs at https://github.com/shankar1729/jdftx/issues

Initialization completed successfully at t[s]:   3913.68


-------- Electronic minimization -----------
	FillingsUpdate:  mu: -0.243833473  nElectrons: 338.000000
ElecMinimize: Iter:   0  F: -1818.833108227749335  |grad|_K:  1.445e-04  alpha:  1.000e+00
	FillingsUpdate:  mu: -0.039505790  nElectrons: 338.000000
	SubspaceRotationAdjust: set factor to 0.511
ElecMinimize: Iter:   1  F: -1819.139314200966055  |grad|_K:  5.470e-04  alpha:  2.691e-01  linmin: -9.252e-05  t[s]:   4568.55
	FillingsUpdate:  mu: -0.081144360  nElectrons: 338.000000
	SubspaceRotationAdjust: set factor to 0.201
ElecMinimize: Iter:   2  F: -1819.268434210056739  |grad|_K:  2.272e-04  alpha:  1.331e-02  linmin:  2.242e-03  t[s]:   5022.13
	FillingsUpdate:  mu: -0.135443492  nElectrons: 338.000000
	SubspaceRotationAdjust: set factor to 0.361
ElecMinimize: Iter:   3  F: -1819.302549373361217  |grad|_K:  8.147e-05  alpha:  2.111e-02  linmin: -3.180e-05  t[s]:   5478.54
ElecMinimize: 	Predicted alpha/alphaT>3.000000, increasing alphaT to 6.332241e-02.
	FillingsUpdate:  mu: -0.165472719  nElectrons: 338.000000
	SubspaceRotationAdjust: set factor to 0.209
ElecMinimize: Iter:   4  F: -1819.352817523100839  |grad|_K:  1.358e-04  alpha:  1.400e-01  linmin: -1.176e-04  t[s]:   6039.19
	FillingsUpdate:  mu: -0.235285721  nElectrons: 338.000000
	SubspaceRotationAdjust: set factor to 0.16
ElecMinimize: Iter:   5  F: -1819.380320195600461  |grad|_K:  6.100e-05  alpha:  2.897e-02  linmin:  3.834e-04  t[s]:   6494.80
ElecMinimize: 	Predicted alpha/alphaT>3.000000, increasing alphaT to 8.690489e-02.
	FillingsUpdate:  mu: -0.198981219  nElectrons: 338.000000
	SubspaceRotationAdjust: set factor to 0.109
	SubspaceRotationAdjust: resetting CG because factor has changed by 0.109039
ElecMinimize: 	State modified externally: resetting search direction.
ElecMinimize: Iter:   6  F: -1819.414300468832607  |grad|_K:  4.706e-05  alpha:  1.795e-01
	FillingsUpdate:  mu: -0.209632901  nElectrons: 338.000000
	SubspaceRotationAdjust: set factor to 0.113
ElecMinimize: Iter:   7  F: -1819.423178708958858  |grad|_K:  2.660e-05  alpha:  7.495e-02  linmin: -1.132e-04  t[s]:   7689.54
ElecMinimize: 	Predicted alpha/alphaT>3.000000, increasing alphaT to 2.248560e-01.
	FillingsUpdate:  mu: -0.196311929  nElectrons: 338.000000
	SubspaceRotationAdjust: set factor to 0.122
ElecMinimize: Iter:   8  F: -1819.432301336869841  |grad|_K:  1.377e-05  alpha:  2.413e-01  linmin:  1.272e-05  t[s]:   8249.94
	FillingsUpdate:  mu: -0.207713045  nElectrons: 338.000000
	SubspaceRotationAdjust: set factor to 0.151
ElecMinimize: Iter:   9  F: -1819.439096160990857  |grad|_K:  1.155e-05  alpha:  6.742e-01  linmin:  4.425e-05  t[s]:   8707.10
	FillingsUpdate:  mu: -0.197618996  nElectrons: 338.000000
	SubspaceRotationAdjust: set factor to 0.0865
ElecMinimize: Iter:  10  F: -1819.442552366648215  |grad|_K:  2.200e-05  alpha:  4.869e-01  linmin:  7.886e-06  t[s]:   9164.46
	FillingsUpdate:  mu: -0.200137696  nElectrons: 338.000000
	SubspaceRotationAdjust: set factor to 0.0624
ElecMinimize: Iter:  11  F: -1819.444313862018817  |grad|_K:  1.017e-05  alpha:  6.709e-02  linmin: -6.905e-05  t[s]:   9618.96
ElecMinimize: 	Predicted alpha/alphaT>3.000000, increasing alphaT to 2.012688e-01.
	FillingsUpdate:  mu: -0.207234376  nElectrons: 338.000000
	SubspaceRotationAdjust: set factor to 0.0527
ElecMinimize: Iter:  12  F: -1819.446800470867629  |grad|_K:  1.102e-05  alpha:  4.453e-01  linmin:  2.715e-05  t[s]:  10181.28
	FillingsUpdate:  mu: -0.210896435  nElectrons: 338.000000
	SubspaceRotationAdjust: set factor to 0.0393
ElecMinimize: Iter:  13  F: -1819.447840171295411  |grad|_K:  8.956e-06  alpha:  1.618e-01  linmin:  1.970e-06  t[s]:  10635.54
ElecMinimize: 	Predicted alpha/alphaT>3.000000, increasing alphaT to 4.854139e-01.
	FillingsUpdate:  mu: -0.208199495  nElectrons: 338.000000
	SubspaceRotationAdjust: set factor to 0.0439
ElecMinimize: Iter:  14  F: -1819.449994415943593  |grad|_K:  9.943e-06  alpha:  5.040e-01  linmin: -2.233e-05  t[s]:  11198.57
	FillingsUpdate:  mu: -0.209360919  nElectrons: 338.000000
	SubspaceRotationAdjust: set factor to 0.0328
ElecMinimize: Iter:  15  F: -1819.451207490087882  |grad|_K:  7.548e-06  alpha:  2.292e-01  linmin:  3.781e-06  t[s]:  11658.48
	FillingsUpdate:  mu: -0.211065434  nElectrons: 338.000000
	SubspaceRotationAdjust: set factor to 0.044
ElecMinimize: Iter:  16  F: -1819.452213718845314  |grad|_K:  5.130e-06  alpha:  3.315e-01  linmin: -1.196e-05  t[s]:  12113.59
	FillingsUpdate:  mu: -0.211911097  nElectrons: 338.000000
	SubspaceRotationAdjust: set factor to 0.0364
ElecMinimize: Iter:  17  F: -1819.452647336564496  |grad|_K:  4.629e-06  alpha:  3.081e-01  linmin: -4.192e-06  t[s]:  12565.84
	FillingsUpdate:  mu: -0.212007473  nElectrons: 338.000000
	SubspaceRotationAdjust: set factor to 0.0387
ElecMinimize: Iter:  18  F: -1819.452968466198627  |grad|_K:  2.759e-06  alpha:  2.809e-01  linmin: -1.581e-06  t[s]:  13020.89
	FillingsUpdate:  mu: -0.209895742  nElectrons: 338.000000
	SubspaceRotationAdjust: set factor to 0.041
ElecMinimize: Iter:  19  F: -1819.453179491609944  |grad|_K:  2.719e-06  alpha:  5.197e-01  linmin: -6.167e-06  t[s]:  13475.52
	FillingsUpdate:  mu: -0.209132303  nElectrons: 338.000000
	SubspaceRotationAdjust: set factor to 0.0331
ElecMinimize: Iter:  20  F: -1819.453284846314091  |grad|_K:  2.121e-06  alpha:  2.673e-01  linmin:  2.699e-06  t[s]:  13929.37
	FillingsUpdate:  mu: -0.208893588  nElectrons: 338.000000
	SubspaceRotationAdjust: set factor to 0.0429
ElecMinimize: Iter:  21  F: -1819.453392372621238  |grad|_K:  1.725e-06  alpha:  4.486e-01  linmin: -7.214e-07  t[s]:  14379.58
	FillingsUpdate:  mu: -0.208182317  nElectrons: 338.000000
	SubspaceRotationAdjust: set factor to 0.044
ElecMinimize: Iter:  22  F: -1819.453486084120414  |grad|_K:  2.160e-06  alpha:  5.907e-01  linmin:  1.895e-06  t[s]:  14833.31
	FillingsUpdate:  mu: -0.207321696  nElectrons: 338.000000
	SubspaceRotationAdjust: set factor to 0.0361
ElecMinimize: Iter:  23  F: -1819.453568248609145  |grad|_K:  2.080e-06  alpha:  3.314e-01  linmin:  1.638e-06  t[s]:  15287.15
	FillingsUpdate:  mu: -0.205847365  nElectrons: 338.000000
	SubspaceRotationAdjust: set factor to 0.0388
ElecMinimize: Iter:  24  F: -1819.453687987160720  |grad|_K:  1.943e-06  alpha:  5.203e-01  linmin:  2.902e-06  t[s]:  15742.18
	FillingsUpdate:  mu: -0.204845088  nElectrons: 338.000000
	SubspaceRotationAdjust: set factor to 0.0409
ElecMinimize: Iter:  25  F: -1819.453786092482005  |grad|_K:  1.742e-06  alpha:  4.887e-01  linmin:  2.343e-06  t[s]:  16193.94
	FillingsUpdate:  mu: -0.204346680  nElectrons: 338.000000
	SubspaceRotationAdjust: set factor to 0.0335
ElecMinimize: Iter:  26  F: -1819.453847435587704  |grad|_K:  1.662e-06  alpha:  3.803e-01  linmin: -2.064e-07  t[s]:  16652.84
	FillingsUpdate:  mu: -0.203958422  nElectrons: 338.000000
	SubspaceRotationAdjust: set factor to 0.0293
ElecMinimize: Iter:  27  F: -1819.453895524357449  |grad|_K:  1.149e-06  alpha:  3.264e-01  linmin:  8.728e-07  t[s]:  17106.57
	FillingsUpdate:  mu: -0.203553696  nElectrons: 338.000000
	SubspaceRotationAdjust: set factor to 0.0359
ElecMinimize: Iter:  28  F: -1819.453927841574114  |grad|_K:  8.388e-07  alpha:  4.598e-01  linmin:  4.444e-07  t[s]:  17559.66
	FillingsUpdate:  mu: -0.203433596  nElectrons: 338.000000
	SubspaceRotationAdjust: set factor to 0.0335
ElecMinimize: Iter:  29  F: -1819.453943481734314  |grad|_K:  7.289e-07  alpha:  4.172e-01  linmin: -1.989e-07  t[s]:  18010.08
	FillingsUpdate:  mu: -0.203522340  nElectrons: 338.000000
	SubspaceRotationAdjust: set factor to 0.0317
ElecMinimize: Iter:  30  F: -1819.453953483858186  |grad|_K:  5.840e-07  alpha:  3.531e-01  linmin:  1.896e-07  t[s]:  18459.03
	FillingsUpdate:  mu: -0.203739607  nElectrons: 338.000000
	SubspaceRotationAdjust: set factor to 0.0383
ElecMinimize: Iter:  31  F: -1819.453963694847289  |grad|_K:  5.297e-07  alpha:  5.619e-01  linmin:  3.864e-07  t[s]:  18908.37
	FillingsUpdate:  mu: -0.203769293  nElectrons: 338.000000
	SubspaceRotationAdjust: set factor to 0.0415
ElecMinimize: Iter:  32  F: -1819.453972663518016  |grad|_K:  5.449e-07  alpha:  6.000e-01  linmin:  3.116e-07  t[s]:  19362.28
	FillingsUpdate:  mu: -0.203864064  nElectrons: 338.000000
	SubspaceRotationAdjust: set factor to 0.0354
ElecMinimize: Iter:  33  F: -1819.453979007450243  |grad|_K:  5.715e-07  alpha:  4.009e-01  linmin:  1.659e-07  t[s]:  19813.95
	FillingsUpdate:  mu: -0.204145245  nElectrons: 338.000000
	SubspaceRotationAdjust: set factor to 0.0321
ElecMinimize: Iter:  34  F: -1819.453985966448954  |grad|_K:  4.495e-07  alpha:  3.999e-01  linmin: -4.847e-08  t[s]:  20265.00
	FillingsUpdate:  mu: -0.204463473  nElectrons: 338.000000
	SubspaceRotationAdjust: set factor to 0.0365
ElecMinimize: Iter:  35  F: -1819.453992102849043  |grad|_K:  3.652e-07  alpha:  5.696e-01  linmin: -1.492e-07  t[s]:  20718.46
	FillingsUpdate:  mu: -0.204544222  nElectrons: 338.000000
	SubspaceRotationAdjust: set factor to 0.0359
ElecMinimize: Iter:  36  F: -1819.453995332931072  |grad|_K:  3.076e-07  alpha:  4.541e-01  linmin:  2.546e-07  t[s]:  21172.08
	FillingsUpdate:  mu: -0.204609612  nElectrons: 338.000000
	SubspaceRotationAdjust: set factor to 0.0308
ElecMinimize: Iter:  37  F: -1819.453997142889875  |grad|_K:  2.516e-07  alpha:  3.591e-01  linmin: -5.301e-08  t[s]:  21621.68
	FillingsUpdate:  mu: -0.204711743  nElectrons: 338.000000
	SubspaceRotationAdjust: set factor to 0.0325
ElecMinimize: Iter:  38  F: -1819.453998532097557  |grad|_K:  1.983e-07  alpha:  4.113e-01  linmin: -3.379e-07  t[s]:  22071.89
	FillingsUpdate:  mu: -0.204810706  nElectrons: 338.000000
	SubspaceRotationAdjust: set factor to 0.0395
ElecMinimize: Iter:  39  F: -1819.453999663667219  |grad|_K:  1.753e-07  alpha:  5.394e-01  linmin: -1.179e-08  t[s]:  22523.29
	FillingsUpdate:  mu: -0.204869443  nElectrons: 338.000000
	SubspaceRotationAdjust: set factor to 0.0415
ElecMinimize: Iter:  40  F: -1819.454000572090081  |grad|_K:  1.883e-07  alpha:  5.546e-01  linmin: -4.290e-07  t[s]:  22973.66
	FillingsUpdate:  mu: -0.204909339  nElectrons: 338.000000
	SubspaceRotationAdjust: set factor to 0.0356
ElecMinimize: Iter:  41  F: -1819.454001316583572  |grad|_K:  1.899e-07  alpha:  3.937e-01  linmin:  3.311e-07  t[s]:  23425.77
	FillingsUpdate:  mu: -0.204958318  nElectrons: 338.000000
	SubspaceRotationAdjust: set factor to 0.0339
ElecMinimize: Iter:  42  F: -1819.454002168400393  |grad|_K:  1.620e-07  alpha:  4.435e-01  linmin:  2.796e-07  t[s]:  23883.01
	FillingsUpdate:  mu: -0.205008285  nElectrons: 338.000000
	SubspaceRotationAdjust: set factor to 0.0373
ElecMinimize: Iter:  43  F: -1819.454002931845480  |grad|_K:  1.311e-07  alpha:  5.465e-01  linmin: -5.808e-07  t[s]:  24332.98
	FillingsUpdate:  mu: -0.205042392  nElectrons: 338.000000
	SubspaceRotationAdjust: set factor to 0.0379
ElecMinimize: Iter:  44  F: -1819.454003390937714  |grad|_K:  1.085e-07  alpha:  4.998e-01  linmin: -8.432e-08  t[s]:  24789.21
	FillingsUpdate:  mu: -0.205046989  nElectrons: 338.000000
	SubspaceRotationAdjust: set factor to 0.032
ElecMinimize: Iter:  45  F: -1819.454003619278637  |grad|_K:  9.387e-08  alpha:  3.638e-01  linmin: -1.347e-07  t[s]:  25242.11
	FillingsUpdate:  mu: -0.205042572  nElectrons: 338.000000
	SubspaceRotationAdjust: set factor to 0.0318
ElecMinimize: Iter:  46  F: -1819.454003789076978  |grad|_K:  6.680e-08  alpha:  3.602e-01  linmin: -3.442e-07  t[s]:  25699.23
	FillingsUpdate:  mu: -0.205047225  nElectrons: 338.000000
	SubspaceRotationAdjust: set factor to 0.0394
ElecMinimize: Iter:  47  F: -1819.454003920430296  |grad|_K:  5.842e-08  alpha:  5.470e-01  linmin: -2.524e-06  t[s]:  26150.31
	FillingsUpdate:  mu: -0.205048694  nElectrons: 338.000000
	SubspaceRotationAdjust: set factor to 0.0437
ElecMinimize: Iter:  48  F: -1819.454004025757513  |grad|_K:  6.433e-08  alpha:  5.733e-01  linmin:  9.161e-07  t[s]:  26604.06
	FillingsUpdate:  mu: -0.205036037  nElectrons: 338.000000
	SubspaceRotationAdjust: set factor to 0.0397
ElecMinimize: Iter:  49  F: -1819.454004125186430  |grad|_K:  7.434e-08  alpha:  4.533e-01  linmin:  3.806e-07  t[s]:  27055.78
	FillingsUpdate:  mu: -0.205017971  nElectrons: 338.000000
	SubspaceRotationAdjust: set factor to 0.0368
ElecMinimize: Iter:  50  F: -1819.454004252021377  |grad|_K:  6.980e-08  alpha:  4.305e-01  linmin: -1.185e-07  t[s]:  27504.59
	FillingsUpdate:  mu: -0.205014216  nElectrons: 338.000000
	SubspaceRotationAdjust: set factor to 0.039
ElecMinimize: Iter:  51  F: -1819.454004404685747  |grad|_K:  6.517e-08  alpha:  5.829e-01  linmin: -6.368e-07  t[s]:  27955.47
	FillingsUpdate:  mu: -0.205013880  nElectrons: 338.000000
	SubspaceRotationAdjust: set factor to 0.0408
ElecMinimize: Iter:  52  F: -1819.454004527045981  |grad|_K:  5.373e-08  alpha:  5.405e-01  linmin:  6.412e-07  t[s]:  28408.06
	FillingsUpdate:  mu: -0.205004457  nElectrons: 338.000000
	SubspaceRotationAdjust: set factor to 0.0363
ElecMinimize: Iter:  53  F: -1819.454004592940692  |grad|_K:  4.622e-08  alpha:  4.288e-01  linmin:  2.891e-07  t[s]:  28861.32
	FillingsUpdate:  mu: -0.205000413  nElectrons: 338.000000
	SubspaceRotationAdjust: set factor to 0.0279
ElecMinimize: Iter:  54  F: -1819.454004623599758  |grad|_K:  3.159e-08  alpha:  2.760e-01  linmin: -1.202e-06  t[s]:  29314.60
	FillingsUpdate:  mu: -0.205001992  nElectrons: 338.000000
	SubspaceRotationAdjust: set factor to 0.0314
ElecMinimize: Iter:  55  F: -1819.454004645929217  |grad|_K:  2.231e-08  alpha:  4.447e-01  linmin:  1.005e-05  t[s]:  29766.20
	FillingsUpdate:  mu: -0.205002178  nElectrons: 338.000000
	SubspaceRotationAdjust: set factor to 0.0362
ElecMinimize: Iter:  56  F: -1819.454004656774941  |grad|_K:  1.717e-08  alpha:  4.495e-01  linmin:  5.176e-06  t[s]:  30222.69
	FillingsUpdate:  mu: -0.205001566  nElectrons: 338.000000
	SubspaceRotationAdjust: set factor to 0.04
ElecMinimize: Iter:  57  F: -1819.454004662159605  |grad|_K:  1.381e-08  alpha:  3.553e-01  linmin: -1.952e-05  t[s]:  30674.60
	FillingsUpdate:  mu: -0.205000790  nElectrons: 338.000000
	SubspaceRotationAdjust: set factor to 0.042
ElecMinimize: Iter:  58  F: -1819.454004667849176  |grad|_K:  1.664e-08  alpha:  5.782e-01  linmin:  1.257e-05  t[s]:  31126.97
ElecMinimize: Converged (|Delta F|<1.000000e-08 for 2 iters).
Setting wave functions to eigenvectors of Hamiltonian

# Ionic positions in lattice coordinates:
ion H   0.611000000000000   0.664000000000000   0.312000000000000 1
ion H   0.168000000000000   0.405000000000000   0.312000000000000 1
ion C   0.500000000000000   0.500000000000000   0.312000000000000 1
ion O   0.558000000000000   0.289000000000000   0.312000000000000 1
ion O   0.263000000000000   0.549000000000000   0.312000000000000 1
ion Pt   0.000000000000000   0.000000000000000  -0.166700000000000 0
ion Pt   0.500000000000000   0.500000000000000  -0.166700000000000 0
ion Pt   0.000000000000000   0.500000000000000  -0.166700000000000 0
ion Pt   0.500000000000000   0.000000000000000  -0.166700000000000 0
ion Pt   0.750000000000000   0.250000000000000  -0.083300000000000 0
ion Pt   0.250000000000000   0.750000000000000  -0.083300000000000 0
ion Pt   0.250000000000000   0.250000000000000  -0.083300000000000 0
ion Pt   0.750000000000000   0.750000000000000  -0.083300000000000 0
ion Pt   0.500000000000000   0.000000000000000   0.000000000000000 1
ion Pt   0.000000000000000   0.000000000000000   0.000000000000000 1
ion Pt   0.000000000000000   0.500000000000000   0.000000000000000 1
ion Pt   0.500000000000000   0.500000000000000   0.000000000000000 1
ion Pt   0.750000000000000   0.250000000000000   0.083300000000000 1
ion Pt   0.250000000000000   0.750000000000000   0.083300000000000 1
ion Pt   0.250000000000000   0.250000000000000   0.083300000000000 1
ion Pt   0.750000000000000   0.750000000000000   0.083300000000000 1
ion Pt   0.000000000000000   0.000000000000000   0.166700000000000 1
ion Pt   0.000000000000000   0.500000000000000   0.166700000000000 1
ion Pt   0.500000000000000   0.000000000000000   0.166700000000000 1
ion Pt   0.500000000000000   0.500000000000000   0.166700000000000 1


# Forces in Lattice coordinates:
force H   0.054717282483771   0.055347748981577   0.001755492846072 1
force H  -0.119549168548381  -0.351869171908000  -0.036955496313160 1
force C  -0.374180366311368  -0.359431514094294  -0.071770241666308 1
force O   0.307679831177087   0.005098493832772   0.029705244506588 1
force O   0.127851377431217   0.648672273635690   0.054458494670847 1
force Pt   0.000058460255997   0.000021272652270   0.331194319122958 0
force Pt  -0.000078300317961  -0.000055854422915   0.333596464484849 0
force Pt  -0.000016293869216   0.000008286544754   0.331366814283459 0
force Pt   0.000051674021233  -0.000026039272368   0.329462381795002 0
force Pt  -0.000083861854628  -0.000080940738192  -0.286576617735556 0
force Pt   0.000042416783273  -0.000021818373519  -0.286422373910345 0
force Pt   0.000027633851856  -0.000036875513181  -0.287962553956029 0
force Pt  -0.000180745673686  -0.000058992379654  -0.288897046550702 0
force Pt   0.000336766146893   0.000441125442918   0.001595315147434 1
force Pt  -0.000177052508260  -0.000608120220163   0.003228336140324 1
force Pt   0.000079849579245   0.000580054819397   0.006787629087020 1
force Pt  -0.000204498416551  -0.000404041051849   0.000428272916278 1
force Pt   0.000843996214377  -0.000396628752977   0.286356278808107 1
force Pt   0.001037491517781   0.001001636370544   0.287245228913815 1
force Pt  -0.000885063062430  -0.001266964237073   0.288289593613217 1
force Pt  -0.000887185331525   0.000809604320168   0.288603425608317 1
force Pt   0.000131240808756   0.000677021247777  -0.332330429922664 1
force Pt  -0.000271308912608  -0.000234374740833  -0.327705262514220 1
force Pt   0.000058247282704  -0.000704909117289  -0.312607905956753 1
force Pt   0.001904929461258   0.002183542279367  -0.331842495616579 1

# Energy components:
   Eewald =   -23887.6471419925183000
       EH =   -22353.6479459208712797
     Eloc =    44099.9087132714412292
      Enl =      -15.8282679516188001
      Exc =     -575.7211785296520929
 Exc_core =      324.9916856238403966
       KE =      588.7331991741785941
-------------------------------------
     Etot =    -1819.2109363251965988
       TS =        0.2430683426526832
-------------------------------------
        F =    -1819.4540046678491763

IonicMinimize: Iter:   0  F: -1819.454004667849176  |grad|_K:  1.328e-02  t[s]:  31199.65

#--- Lowdin population analysis ---
# oxidation-state H +0.221 +0.437
# oxidation-state C +0.434
# oxidation-state O -0.355 -0.419
# oxidation-state Pt +0.027 +0.027 +0.027 +0.027 -0.008 -0.008 -0.008 -0.008 +0.013 +0.013 +0.013 +0.013 -0.009 -0.009 -0.009 -0.008 +0.019 -0.000 +0.016 -0.012


-------- Electronic minimization -----------
	FillingsUpdate:  mu: -0.214189620  nElectrons: 338.000000
ElecMinimize: Iter:   0  F: -1819.399262471541761  |grad|_K:  5.257e-05  alpha:  1.000e+00
	FillingsUpdate:  mu: -0.201117086  nElectrons: 338.000000
	SubspaceRotationAdjust: set factor to 0.0356
ElecMinimize: Iter:   1  F: -1819.451296070841408  |grad|_K:  1.823e-05  alpha:  3.547e-01  linmin:  3.584e-03  t[s]:  31997.91
	FillingsUpdate:  mu: -0.204621336  nElectrons: 338.000000
	SubspaceRotationAdjust: set factor to 0.0199
ElecMinimize: Iter:   2  F: -1819.454759228859757  |grad|_K:  9.505e-06  alpha:  1.964e-01  linmin: -1.694e-05  t[s]:  32448.28
	FillingsUpdate:  mu: -0.206385503  nElectrons: 338.000000
	SubspaceRotationAdjust: set factor to 0.0236
ElecMinimize: Iter:   3  F: -1819.456169009618179  |grad|_K:  4.051e-06  alpha:  2.927e-01  linmin:  1.075e-05  t[s]:  32902.68
	FillingsUpdate:  mu: -0.206174758  nElectrons: 338.000000
	SubspaceRotationAdjust: set factor to 0.0264
ElecMinimize: Iter:   4  F: -1819.456537907218262  |grad|_K:  2.564e-06  alpha:  4.217e-01  linmin: -4.921e-05  t[s]:  33359.79
	FillingsUpdate:  mu: -0.206025266  nElectrons: 338.000000
	SubspaceRotationAdjust: set factor to 0.0268
ElecMinimize: Iter:   5  F: -1819.456676535107363  |grad|_K:  1.980e-06  alpha:  3.956e-01  linmin:  8.652e-06  t[s]:  33812.59
	FillingsUpdate:  mu: -0.205952340  nElectrons: 338.000000
	SubspaceRotationAdjust: set factor to 0.0334
ElecMinimize: Iter:   6  F: -1819.456789838733357  |grad|_K:  1.933e-06  alpha:  5.421e-01  linmin: -4.823e-06  t[s]:  34267.39
	FillingsUpdate:  mu: -0.205842201  nElectrons: 338.000000
	SubspaceRotationAdjust: set factor to 0.0393
ElecMinimize: Iter:   7  F: -1819.456975824019082  |grad|_K:  2.635e-06  alpha:  9.335e-01  linmin: -4.660e-06  t[s]:  34722.28
	FillingsUpdate:  mu: -0.205006388  nElectrons: 338.000000
	SubspaceRotationAdjust: set factor to 0.0377
ElecMinimize: Iter:   8  F: -1819.457291514842609  |grad|_K:  4.468e-06  alpha:  8.524e-01  linmin:  2.561e-05  t[s]:  35173.00
	FillingsUpdate:  mu: -0.204603393  nElectrons: 338.000000
	SubspaceRotationAdjust: set factor to 0.0302
ElecMinimize: Iter:   9  F: -1819.457724049997069  |grad|_K:  4.143e-06  alpha:  4.156e-01  linmin:  6.547e-05  t[s]:  35625.02
	FillingsUpdate:  mu: -0.203941280  nElectrons: 338.000000
	SubspaceRotationAdjust: set factor to 0.0307
ElecMinimize: Iter:  10  F: -1819.458261049115436  |grad|_K:  3.319e-06  alpha:  5.950e-01  linmin:  4.703e-05  t[s]:  36082.28
	FillingsUpdate:  mu: -0.203695507  nElectrons: 338.000000
	SubspaceRotationAdjust: set factor to 0.0314
ElecMinimize: Iter:  11  F: -1819.458551289652632  |grad|_K:  2.132e-06  alpha:  4.975e-01  linmin:  7.539e-06  t[s]:  36533.90
	FillingsUpdate:  mu: -0.203766330  nElectrons: 338.000000
	SubspaceRotationAdjust: set factor to 0.0246
ElecMinimize: Iter:  12  F: -1819.458635939589612  |grad|_K:  1.447e-06  alpha:  3.498e-01  linmin: -4.193e-06  t[s]:  36988.44
	FillingsUpdate:  mu: -0.203845567  nElectrons: 338.000000
	SubspaceRotationAdjust: set factor to 0.0215
ElecMinimize: Iter:  13  F: -1819.458672619281060  |grad|_K:  8.213e-07  alpha:  3.288e-01  linmin:  5.230e-06  t[s]:  37445.98
	FillingsUpdate:  mu: -0.203869281  nElectrons: 338.000000
	SubspaceRotationAdjust: set factor to 0.0287
ElecMinimize: Iter:  14  F: -1819.458688748532268  |grad|_K:  5.443e-07  alpha:  4.488e-01  linmin: -3.692e-06  t[s]:  37901.70
	FillingsUpdate:  mu: -0.203943714  nElectrons: 338.000000
	SubspaceRotationAdjust: set factor to 0.0336
ElecMinimize: Iter:  15  F: -1819.458695902086674  |grad|_K:  4.825e-07  alpha:  4.530e-01  linmin:  3.140e-06  t[s]:  38353.26
	FillingsUpdate:  mu: -0.204149345  nElectrons: 338.000000
	SubspaceRotationAdjust: set factor to 0.0387
ElecMinimize: Iter:  16  F: -1819.458703051830753  |grad|_K:  5.357e-07  alpha:  5.765e-01  linmin:  1.153e-06  t[s]:  38803.81
	FillingsUpdate:  mu: -0.204469187  nElectrons: 338.000000
	SubspaceRotationAdjust: set factor to 0.04
ElecMinimize: Iter:  17  F: -1819.458712055734395  |grad|_K:  6.348e-07  alpha:  5.888e-01  linmin:  4.112e-07  t[s]:  39253.71
	FillingsUpdate:  mu: -0.204895621  nElectrons: 338.000000
	SubspaceRotationAdjust: set factor to 0.0412
ElecMinimize: Iter:  18  F: -1819.458724971872698  |grad|_K:  6.448e-07  alpha:  6.014e-01  linmin:  8.206e-08  t[s]:  39709.14
	FillingsUpdate:  mu: -0.205275943  nElectrons: 338.000000
	SubspaceRotationAdjust: set factor to 0.0425
ElecMinimize: Iter:  19  F: -1819.458736974795784  |grad|_K:  5.570e-07  alpha:  5.417e-01  linmin: -7.387e-07  t[s]:  40165.44
	FillingsUpdate:  mu: -0.205530931  nElectrons: 338.000000
	SubspaceRotationAdjust: set factor to 0.043
ElecMinimize: Iter:  20  F: -1819.458744897426413  |grad|_K:  4.680e-07  alpha:  4.791e-01  linmin: -4.267e-07  t[s]:  40616.97
	FillingsUpdate:  mu: -0.205641700  nElectrons: 338.000000
	SubspaceRotationAdjust: set factor to 0.0408
ElecMinimize: Iter:  21  F: -1819.458748935849371  |grad|_K:  3.813e-07  alpha:  3.459e-01  linmin:  1.011e-06  t[s]:  41069.62
	FillingsUpdate:  mu: -0.205679634  nElectrons: 338.000000
	SubspaceRotationAdjust: set factor to 0.0417
ElecMinimize: Iter:  22  F: -1819.458751579889622  |grad|_K:  3.065e-07  alpha:  3.412e-01  linmin:  4.380e-07  t[s]:  41525.05
	FillingsUpdate:  mu: -0.205675964  nElectrons: 338.000000
	SubspaceRotationAdjust: set factor to 0.0514
ElecMinimize: Iter:  23  F: -1819.458753831091599  |grad|_K:  2.633e-07  alpha:  4.497e-01  linmin:  1.622e-06  t[s]:  41975.04
	FillingsUpdate:  mu: -0.205633241  nElectrons: 338.000000
	SubspaceRotationAdjust: set factor to 0.0625
ElecMinimize: Iter:  24  F: -1819.458755960728695  |grad|_K:  2.610e-07  alpha:  5.762e-01  linmin: -1.394e-06  t[s]:  42428.87
	FillingsUpdate:  mu: -0.205556076  nElectrons: 338.000000
	SubspaceRotationAdjust: set factor to 0.07
ElecMinimize: Iter:  25  F: -1819.458758042714862  |grad|_K:  2.584e-07  alpha:  5.735e-01  linmin:  5.993e-07  t[s]:  42881.58
	FillingsUpdate:  mu: -0.205489238  nElectrons: 338.000000
	SubspaceRotationAdjust: set factor to 0.0607
ElecMinimize: Iter:  26  F: -1819.458759422313733  |grad|_K:  3.030e-07  alpha:  3.875e-01  linmin:  1.101e-07  t[s]:  43332.32
	FillingsUpdate:  mu: -0.205447209  nElectrons: 338.000000
	SubspaceRotationAdjust: set factor to 0.0445
ElecMinimize: Iter:  27  F: -1819.458760318552095  |grad|_K:  2.113e-07  alpha:  1.836e-01  linmin: -4.912e-07  t[s]:  43785.29
	FillingsUpdate:  mu: -0.205402507  nElectrons: 338.000000
	SubspaceRotationAdjust: set factor to 0.0546
ElecMinimize: Iter:  28  F: -1819.458761209760496  |grad|_K:  1.482e-07  alpha:  3.738e-01  linmin: -1.015e-06  t[s]:  44238.37
	FillingsUpdate:  mu: -0.205375288  nElectrons: 338.000000
	SubspaceRotationAdjust: set factor to 0.0682
ElecMinimize: Iter:  29  F: -1819.458761757995944  |grad|_K:  1.276e-07  alpha:  4.687e-01  linmin:  9.471e-07  t[s]:  44693.45
	FillingsUpdate:  mu: -0.205363143  nElectrons: 338.000000
	SubspaceRotationAdjust: set factor to 0.0512
ElecMinimize: Iter:  30  F: -1819.458762066059080  |grad|_K:  1.490e-07  alpha:  3.555e-01  linmin: -3.073e-06  t[s]:  45150.78
	FillingsUpdate:  mu: -0.205351778  nElectrons: 338.000000
	SubspaceRotationAdjust: set factor to 0.0482
ElecMinimize: Iter:  31  F: -1819.458762322178700  |grad|_K:  1.151e-07  alpha:  2.160e-01  linmin:  1.701e-06  t[s]:  45605.06
	FillingsUpdate:  mu: -0.205328518  nElectrons: 338.000000
	SubspaceRotationAdjust: set factor to 0.0624
ElecMinimize: Iter:  32  F: -1819.458762673569936  |grad|_K:  1.035e-07  alpha:  4.988e-01  linmin:  2.266e-06  t[s]:  46056.87
	FillingsUpdate:  mu: -0.205307528  nElectrons: 338.000000
	SubspaceRotationAdjust: set factor to 0.0639
ElecMinimize: Iter:  33  F: -1819.458762961791308  |grad|_K:  1.279e-07  alpha:  5.053e-01  linmin: -2.106e-06  t[s]:  46508.47
	FillingsUpdate:  mu: -0.205293956  nElectrons: 338.000000
	SubspaceRotationAdjust: set factor to 0.0496
ElecMinimize: Iter:  34  F: -1819.458763146486262  |grad|_K:  1.099e-07  alpha:  2.103e-01  linmin: -1.185e-07  t[s]:  46962.44
	FillingsUpdate:  mu: -0.205279967  nElectrons: 338.000000
	SubspaceRotationAdjust: set factor to 0.0549
ElecMinimize: Iter:  35  F: -1819.458763370718771  |grad|_K:  8.067e-08  alpha:  3.449e-01  linmin: -1.194e-05  t[s]:  47416.93
	FillingsUpdate:  mu: -0.205270879  nElectrons: 338.000000
	SubspaceRotationAdjust: set factor to 0.0656
ElecMinimize: Iter:  36  F: -1819.458763534284117  |grad|_K:  6.706e-08  alpha:  4.646e-01  linmin:  6.975e-06  t[s]:  47866.51
	FillingsUpdate:  mu: -0.205263471  nElectrons: 338.000000
	SubspaceRotationAdjust: set factor to 0.0528
ElecMinimize: Iter:  37  F: -1819.458763612177336  |grad|_K:  7.226e-08  alpha:  3.288e-01  linmin: -9.087e-06  t[s]:  48317.61
	FillingsUpdate:  mu: -0.205258556  nElectrons: 338.000000
	SubspaceRotationAdjust: set factor to 0.0479
ElecMinimize: Iter:  38  F: -1819.458763667705625  |grad|_K:  4.680e-08  alpha:  1.986e-01  linmin:  4.237e-06  t[s]:  48773.97
	FillingsUpdate:  mu: -0.205257271  nElectrons: 338.000000
	SubspaceRotationAdjust: set factor to 0.0599
ElecMinimize: Iter:  39  F: -1819.458763721964033  |grad|_K:  4.128e-08  alpha:  5.060e-01  linmin:  5.396e-05  t[s]:  49223.39
	FillingsUpdate:  mu: -0.205261487  nElectrons: 338.000000
	SubspaceRotationAdjust: set factor to 0.0719
ElecMinimize: Iter:  40  F: -1819.458763759493650  |grad|_K:  3.555e-08  alpha:  4.479e-01  linmin:  2.023e-05  t[s]:  49672.62
	FillingsUpdate:  mu: -0.205267344  nElectrons: 338.000000
	SubspaceRotationAdjust: set factor to 0.061
ElecMinimize: Iter:  41  F: -1819.458763784911753  |grad|_K:  4.170e-08  alpha:  3.892e-01  linmin:  2.036e-05  t[s]:  50128.74
	FillingsUpdate:  mu: -0.205271371  nElectrons: 338.000000
	SubspaceRotationAdjust: set factor to 0.0491
ElecMinimize: Iter:  42  F: -1819.458763800112592  |grad|_K:  3.006e-08  alpha:  1.735e-01  linmin:  5.009e-07  t[s]:  50580.14
ElecMinimize: 	Predicted alpha/alphaT>3.000000, increasing alphaT to 5.205541e-01.
	FillingsUpdate:  mu: -0.205276691  nElectrons: 338.000000
	SubspaceRotationAdjust: set factor to 0.066
ElecMinimize: Iter:  43  F: -1819.458763820938202  |grad|_K:  2.396e-08  alpha:  4.304e-01  linmin: -1.183e-06  t[s]:  51135.19
	FillingsUpdate:  mu: -0.205281214  nElectrons: 338.000000
	SubspaceRotationAdjust: set factor to 0.0584
ElecMinimize: Iter:  44  F: -1819.458763833277771  |grad|_K:  2.590e-08  alpha:  4.000e-01  linmin: -9.018e-06  t[s]:  51592.76
	FillingsUpdate:  mu: -0.205285600  nElectrons: 338.000000
	SubspaceRotationAdjust: set factor to 0.0514
ElecMinimize: Iter:  45  F: -1819.458763841389782  |grad|_K:  2.390e-08  alpha:  2.202e-01  linmin:  1.485e-05  t[s]:  52049.83
	FillingsUpdate:  mu: -0.205294973  nElectrons: 338.000000
	SubspaceRotationAdjust: set factor to 0.0582
ElecMinimize: Iter:  46  F: -1819.458763850652304  |grad|_K:  2.287e-08  alpha:  4.470e-01  linmin:  1.210e-04  t[s]:  52504.51
ElecMinimize: Converged (|Delta F|<1.000000e-08 for 2 iters).
Setting wave functions to eigenvectors of Hamiltonian

# Ionic positions in lattice coordinates:
ion H   0.611498264531285   0.664504005662419   0.312000888656046 1
ion H   0.166911365701505   0.401795821721111   0.311981292589533 1
ion C   0.496592652332626   0.496726957795239   0.311963668858381 1
ion O   0.560801782908585   0.289046427719443   0.312015037227407 1
ion O   0.264164235571618   0.554906915908633   0.312027567683156 1
ion Pt   0.000000000000000   0.000000000000000  -0.166700000000000 0
ion Pt   0.500000000000000   0.500000000000000  -0.166700000000000 0
ion Pt   0.000000000000000   0.500000000000000  -0.166700000000000 0
ion Pt   0.500000000000000   0.000000000000000  -0.166700000000000 0
ion Pt   0.750000000000000   0.250000000000000  -0.083300000000000 0
ion Pt   0.250000000000000   0.750000000000000  -0.083300000000000 0
ion Pt   0.250000000000000   0.250000000000000  -0.083300000000000 0
ion Pt   0.750000000000000   0.750000000000000  -0.083300000000000 0
ion Pt   0.500003066647661   0.000004016960494   0.000000807571762 1
ion Pt  -0.000001612269123  -0.000005537642272   0.000001634230773 1
ion Pt   0.000000727123340   0.500005282074138   0.000003435996701 1
ion Pt   0.499998137803943   0.499996320736042   0.000000216797988 1
ion Pt   0.750007685567687   0.249996388233649   0.083444957718929 1
ion Pt   0.250009447567594   0.750009121064754   0.083445407718419 1
ion Pt   0.249991940470872   0.249988462816261   0.083445936391041 1
ion Pt   0.749991921145143   0.750007372389468   0.083446095257367 1
ion Pt   0.000001195100288   0.000006165066308   0.166531769496193 1
ion Pt  -0.000002470583370   0.499997865745244   0.166534110823298 1
ion Pt   0.500000530409291  -0.000006419017813   0.166541753325070 1
ion Pt   0.500017346599503   0.500019883693433   0.166532016495645 1


# Forces in Lattice coordinates:
force H  -0.031655934264689  -0.082958600389440  -0.005189506555845 1
force H   0.093175318559022   0.083028470942999  -0.036195765695088 1
force C  -0.076937081795218   0.034465676797623  -0.049255950286981 1
force O   0.210983690222387  -0.114006241464324   0.019700599388257 1
force O  -0.199501238220446   0.075068648612124   0.046510344416544 1
force Pt   0.000053402756354   0.000017587369397   0.332776681706738 0
force Pt  -0.000071579691539  -0.000047897239911   0.334872654536447 0
force Pt  -0.000030840423761   0.000003273872739   0.332751448546742 0
force Pt   0.000048458771465  -0.000035158870833   0.330840829544755 0
force Pt  -0.000059507852102  -0.000059827256567  -0.288036677996948 0
force Pt   0.000054242410241  -0.000024777275881  -0.287935645114777 0
force Pt   0.000009310374189  -0.000021211542176  -0.289488058513998 0
force Pt  -0.000189979986389  -0.000077568482295  -0.290236576463720 0
force Pt   0.000250339994501   0.000380253014847   0.017696356399485 1
force Pt  -0.000104001961264  -0.000472589659521   0.019642298382655 1
force Pt   0.000054612398880   0.000466500996749   0.023021162814521 1
force Pt  -0.000179397148816  -0.000355029739586   0.016830261743408 1
force Pt   0.000568109183870  -0.000392549632646   0.226759289256116 1
force Pt   0.000944112985186   0.000850350536711   0.227655868122851 1
force Pt  -0.000556719673329  -0.001028751423513   0.228721290193853 1
force Pt  -0.000762137478919   0.000836890833575   0.228680315730900 1
force Pt   0.000170171955824   0.000733512809433  -0.290817313479120 1
force Pt  -0.000158756938039  -0.000381683706664  -0.287743316982023 1
force Pt   0.000052233891924  -0.000445978007289  -0.270233609867512 1
force Pt   0.001662118456305   0.001829440369423  -0.291183966860810 1

# Energy components:
   Eewald =   -23884.1331591344169283
       EH =   -22350.2455916165745293
     Eloc =    44093.0154010467958869
      Enl =      -15.8339589264420351
      Exc =     -575.7070982946468121
 Exc_core =      324.9916884286837444
       KE =      588.6968309313903092
-------------------------------------
     Etot =    -1819.2158875652103234
       TS =        0.2428762854420559
-------------------------------------
        F =    -1819.4587638506523035

IonicMinimize: Iter:   1  F: -1819.458763850652304  |grad|_K:  5.405e-03  alpha:  1.000e+00  linmin: -2.057e-01  t[s]:  52577.15

#--- Lowdin population analysis ---
# oxidation-state H +0.203 +0.423
# oxidation-state C +0.442
# oxidation-state O -0.355 -0.398
# oxidation-state Pt +0.028 +0.028 +0.028 +0.028 -0.008 -0.008 -0.008 -0.008 +0.013 +0.013 +0.013 +0.013 -0.008 -0.008 -0.009 -0.008 +0.019 -0.001 +0.016 -0.012


-------- Electronic minimization -----------
	FillingsUpdate:  mu: -0.216077775  nElectrons: 338.000000
ElecMinimize: Iter:   0  F: -1819.430129134264007  |grad|_K:  3.873e-05  alpha:  1.000e+00
	FillingsUpdate:  mu: -0.200558692  nElectrons: 338.000000
	SubspaceRotationAdjust: set factor to 0.043
ElecMinimize: Iter:   1  F: -1819.455189384415007  |grad|_K:  1.867e-05  alpha:  3.135e-01  linmin:  1.430e-04  t[s]:  53379.48
	FillingsUpdate:  mu: -0.205958776  nElectrons: 338.000000
	SubspaceRotationAdjust: set factor to 0.0227
ElecMinimize: Iter:   2  F: -1819.457478479329211  |grad|_K:  7.407e-06  alpha:  1.233e-01  linmin:  6.692e-06  t[s]:  53826.84
	FillingsUpdate:  mu: -0.206147296  nElectrons: 338.000000
	SubspaceRotationAdjust: set factor to 0.0385
ElecMinimize: Iter:   3  F: -1819.458424850903839  |grad|_K:  2.994e-06  alpha:  3.236e-01  linmin:  6.470e-06  t[s]:  54285.76
	FillingsUpdate:  mu: -0.206168165  nElectrons: 338.000000
	SubspaceRotationAdjust: set factor to 0.0339
ElecMinimize: Iter:   4  F: -1819.458585043440280  |grad|_K:  2.128e-06  alpha:  3.354e-01  linmin: -9.857e-06  t[s]:  54736.96
	FillingsUpdate:  mu: -0.206020346  nElectrons: 338.000000
	SubspaceRotationAdjust: set factor to 0.0351
ElecMinimize: Iter:   5  F: -1819.458671521321776  |grad|_K:  1.796e-06  alpha:  3.583e-01  linmin:  8.685e-06  t[s]:  55193.59
	FillingsUpdate:  mu: -0.205711300  nElectrons: 338.000000
	SubspaceRotationAdjust: set factor to 0.0423
ElecMinimize: Iter:   6  F: -1819.458794380839436  |grad|_K:  1.864e-06  alpha:  7.146e-01  linmin: -1.618e-05  t[s]:  55647.16
	FillingsUpdate:  mu: -0.205386205  nElectrons: 338.000000
	SubspaceRotationAdjust: set factor to 0.0462
ElecMinimize: Iter:   7  F: -1819.459012016874794  |grad|_K:  2.654e-06  alpha:  1.175e+00  linmin:  1.518e-05  t[s]:  56098.11
	FillingsUpdate:  mu: -0.204568016  nElectrons: 338.000000
	SubspaceRotationAdjust: set factor to 0.0471
ElecMinimize: Iter:   8  F: -1819.459371689836644  |grad|_K:  3.271e-06  alpha:  9.608e-01  linmin: -1.019e-05  t[s]:  56553.22
	FillingsUpdate:  mu: -0.203936283  nElectrons: 338.000000
	SubspaceRotationAdjust: set factor to 0.0404
ElecMinimize: Iter:   9  F: -1819.459658307760037  |grad|_K:  3.309e-06  alpha:  4.949e-01  linmin: -6.015e-05  t[s]:  57006.50
	FillingsUpdate:  mu: -0.204019203  nElectrons: 338.000000
	SubspaceRotationAdjust: set factor to 0.0257
ElecMinimize: Iter:  10  F: -1819.459795612779772  |grad|_K:  2.133e-06  alpha:  2.359e-01  linmin:  5.103e-05  t[s]:  57460.34
	FillingsUpdate:  mu: -0.204132511  nElectrons: 338.000000
	SubspaceRotationAdjust: set factor to 0.0276
ElecMinimize: Iter:  11  F: -1819.459893323671622  |grad|_K:  1.291e-06  alpha:  4.055e-01  linmin:  2.507e-05  t[s]:  57917.05
	FillingsUpdate:  mu: -0.204144601  nElectrons: 338.000000
	SubspaceRotationAdjust: set factor to 0.0292
ElecMinimize: Iter:  12  F: -1819.459927442748722  |grad|_K:  7.771e-07  alpha:  3.848e-01  linmin:  2.603e-06  t[s]:  58371.45
	FillingsUpdate:  mu: -0.204190862  nElectrons: 338.000000
	SubspaceRotationAdjust: set factor to 0.0283
ElecMinimize: Iter:  13  F: -1819.459939450191541  |grad|_K:  5.202e-07  alpha:  3.731e-01  linmin: -9.222e-06  t[s]:  58823.63
	FillingsUpdate:  mu: -0.204270727  nElectrons: 338.000000
	SubspaceRotationAdjust: set factor to 0.0307
ElecMinimize: Iter:  14  F: -1819.459945562824259  |grad|_K:  4.230e-07  alpha:  4.238e-01  linmin:  6.847e-06  t[s]:  59278.69
	FillingsUpdate:  mu: -0.204403319  nElectrons: 338.000000
	SubspaceRotationAdjust: set factor to 0.0392
ElecMinimize: Iter:  15  F: -1819.459950577892414  |grad|_K:  3.953e-07  alpha:  5.261e-01  linmin:  5.254e-06  t[s]:  59730.96
	FillingsUpdate:  mu: -0.204663477  nElectrons: 338.000000
	SubspaceRotationAdjust: set factor to 0.0462
ElecMinimize: Iter:  16  F: -1819.459956814561565  |grad|_K:  4.760e-07  alpha:  7.487e-01  linmin: -2.702e-06  t[s]:  60184.56
	FillingsUpdate:  mu: -0.204997148  nElectrons: 338.000000
	SubspaceRotationAdjust: set factor to 0.0441
ElecMinimize: Iter:  17  F: -1819.459963916739753  |grad|_K:  6.322e-07  alpha:  5.880e-01  linmin:  3.225e-07  t[s]:  60640.51
	FillingsUpdate:  mu: -0.205325982  nElectrons: 338.000000
	SubspaceRotationAdjust: set factor to 0.0341
ElecMinimize: Iter:  18  F: -1819.459970846509123  |grad|_K:  5.570e-07  alpha:  3.257e-01  linmin:  3.424e-06  t[s]:  61090.62
	FillingsUpdate:  mu: -0.205645640  nElectrons: 338.000000
	SubspaceRotationAdjust: set factor to 0.0354
ElecMinimize: Iter:  19  F: -1819.459978697476345  |grad|_K:  3.998e-07  alpha:  4.750e-01  linmin:  9.697e-07  t[s]:  61543.89
	FillingsUpdate:  mu: -0.205801062  nElectrons: 338.000000
	SubspaceRotationAdjust: set factor to 0.0391
ElecMinimize: Iter:  20  F: -1819.459982865676693  |grad|_K:  2.905e-07  alpha:  4.892e-01  linmin:  2.135e-06  t[s]:  61997.59
	FillingsUpdate:  mu: -0.205853220  nElectrons: 338.000000
	SubspaceRotationAdjust: set factor to 0.0364
ElecMinimize: Iter:  21  F: -1819.459984697965410  |grad|_K:  2.411e-07  alpha:  4.076e-01  linmin: -7.945e-06  t[s]:  62453.07
	FillingsUpdate:  mu: -0.205857836  nElectrons: 338.000000
	SubspaceRotationAdjust: set factor to 0.0334
ElecMinimize: Iter:  22  F: -1819.459985601240760  |grad|_K:  1.697e-07  alpha:  2.917e-01  linmin:  1.144e-06  t[s]:  62904.15
	FillingsUpdate:  mu: -0.205831753  nElectrons: 338.000000
	SubspaceRotationAdjust: set factor to 0.0444
ElecMinimize: Iter:  23  F: -1819.459986361714755  |grad|_K:  1.379e-07  alpha:  4.952e-01  linmin:  6.772e-06  t[s]:  63353.94
	FillingsUpdate:  mu: -0.205772296  nElectrons: 338.000000
	SubspaceRotationAdjust: set factor to 0.0543
ElecMinimize: Iter:  24  F: -1819.459987032058962  |grad|_K:  1.492e-07  alpha:  6.605e-01  linmin: -2.501e-05  t[s]:  63808.69
	FillingsUpdate:  mu: -0.205692176  nElectrons: 338.000000
	SubspaceRotationAdjust: set factor to 0.0521
ElecMinimize: Iter:  25  F: -1819.459987608362098  |grad|_K:  1.760e-07  alpha:  4.839e-01  linmin:  7.174e-06  t[s]:  64262.98
	FillingsUpdate:  mu: -0.205627511  nElectrons: 338.000000
	SubspaceRotationAdjust: set factor to 0.0406
ElecMinimize: Iter:  26  F: -1819.459988030264412  |grad|_K:  1.478e-07  alpha:  2.563e-01  linmin: -1.903e-06  t[s]:  64716.53
	FillingsUpdate:  mu: -0.205546373  nElectrons: 338.000000
	SubspaceRotationAdjust: set factor to 0.0425
ElecMinimize: Iter:  27  F: -1819.459988543783993  |grad|_K:  1.085e-07  alpha:  4.397e-01  linmin: -1.493e-05  t[s]:  65170.56
	FillingsUpdate:  mu: -0.205501158  nElectrons: 338.000000
	SubspaceRotationAdjust: set factor to 0.0505
ElecMinimize: Iter:  28  F: -1819.459988831870987  |grad|_K:  7.517e-08  alpha:  4.565e-01  linmin: -2.603e-05  t[s]:  65627.57
	FillingsUpdate:  mu: -0.205481324  nElectrons: 338.000000
	SubspaceRotationAdjust: set factor to 0.0469
ElecMinimize: Iter:  29  F: -1819.459988971457733  |grad|_K:  7.285e-08  alpha:  4.611e-01  linmin: -2.629e-05  t[s]:  66079.91
	FillingsUpdate:  mu: -0.205471797  nElectrons: 338.000000
	SubspaceRotationAdjust: set factor to 0.0409
ElecMinimize: Iter:  30  F: -1819.459989042430379  |grad|_K:  6.050e-08  alpha:  2.537e-01  linmin: -9.448e-06  t[s]:  66532.68
	FillingsUpdate:  mu: -0.205460170  nElectrons: 338.000000
	SubspaceRotationAdjust: set factor to 0.0507
ElecMinimize: Iter:  31  F: -1819.459989126058645  |grad|_K:  4.825e-08  alpha:  4.322e-01  linmin:  7.479e-05  t[s]:  66985.82
	FillingsUpdate:  mu: -0.205446821  nElectrons: 338.000000
	SubspaceRotationAdjust: set factor to 0.0622
ElecMinimize: Iter:  32  F: -1819.459989197220693  |grad|_K:  4.801e-08  alpha:  5.901e-01  linmin:  3.180e-05  t[s]:  67435.55
	FillingsUpdate:  mu: -0.205435662  nElectrons: 338.000000
	SubspaceRotationAdjust: set factor to 0.0538
ElecMinimize: Iter:  33  F: -1819.459989254570701  |grad|_K:  6.075e-08  alpha:  4.697e-01  linmin:  2.884e-07  t[s]:  67890.59
	FillingsUpdate:  mu: -0.205427259  nElectrons: 338.000000
	SubspaceRotationAdjust: set factor to 0.0404
ElecMinimize: Iter:  34  F: -1819.459989296520234  |grad|_K:  4.623e-08  alpha:  2.139e-01  linmin:  1.017e-05  t[s]:  68343.80
	FillingsUpdate:  mu: -0.205417301  nElectrons: 338.000000
	SubspaceRotationAdjust: set factor to 0.049
ElecMinimize: Iter:  35  F: -1819.459989343125471  |grad|_K:  3.288e-08  alpha:  4.045e-01  linmin:  8.097e-06  t[s]:  68795.59
	FillingsUpdate:  mu: -0.205411621  nElectrons: 338.000000
	SubspaceRotationAdjust: set factor to 0.0529
ElecMinimize: Iter:  36  F: -1819.459989371458278  |grad|_K:  3.035e-08  alpha:  4.940e-01  linmin:  3.111e-05  t[s]:  69252.68
	FillingsUpdate:  mu: -0.205407618  nElectrons: 338.000000
	SubspaceRotationAdjust: set factor to 0.0454
ElecMinimize: Iter:  37  F: -1819.459989382885169  |grad|_K:  2.629e-08  alpha:  2.500e-01  linmin: -4.514e-05  t[s]:  69710.59
	FillingsUpdate:  mu: -0.205401284  nElectrons: 338.000000
	SubspaceRotationAdjust: set factor to 0.0493
ElecMinimize: Iter:  38  F: -1819.459989395376851  |grad|_K:  2.023e-08  alpha:  3.754e-01  linmin:  2.686e-04  t[s]:  70166.42
	FillingsUpdate:  mu: -0.205399508  nElectrons: 338.000000
	SubspaceRotationAdjust: set factor to 0.057
ElecMinimize: Iter:  39  F: -1819.459989405273973  |grad|_K:  1.964e-08  alpha:  6.269e-01  linmin:  3.078e-04  t[s]:  70623.25
	FillingsUpdate:  mu: -0.205401094  nElectrons: 338.000000
	SubspaceRotationAdjust: set factor to 0.064
ElecMinimize: Iter:  40  F: -1819.459989412426694  |grad|_K:  1.769e-08  alpha:  4.363e-01  linmin: -8.912e-05  t[s]:  71080.91
ElecMinimize: Converged (|Delta F|<1.000000e-08 for 2 iters).
Setting wave functions to eigenvectors of Hamiltonian

# Ionic positions in lattice coordinates:
ion H   0.611295324622751   0.663824133719453   0.311998364884948 1
ion H   0.167578479596209   0.401977773662803   0.311959091119121 1
ion C   0.495246675096811   0.496443729980342   0.311931448869645 1
ion O   0.563284871907093   0.287992792705805   0.312028017503543 1
ion O   0.262520431719134   0.556697015338791   0.312056747490040 1
ion Pt   0.000000000000000   0.000000000000000  -0.166700000000000 0
ion Pt   0.500000000000000   0.500000000000000  -0.166700000000000 0
ion Pt   0.000000000000000   0.500000000000000  -0.166700000000000 0
ion Pt   0.500000000000000   0.000000000000000  -0.166700000000000 0
ion Pt   0.750000000000000   0.250000000000000  -0.083300000000000 0
ion Pt   0.250000000000000   0.750000000000000  -0.083300000000000 0
ion Pt   0.250000000000000   0.250000000000000  -0.083300000000000 0
ion Pt   0.750000000000000   0.750000000000000  -0.083300000000000 0
ion Pt   0.500005965329024   0.000008301524209   0.000010122346833 1
ion Pt  -0.000002878961868  -0.000010963300740   0.000012109525953 1
ion Pt   0.000001370211601   0.500010603814770   0.000015994028480 1
ion Pt   0.499996122499114   0.499992333533798   0.000008973904558 1
ion Pt   0.750014397792966   0.249992063917824   0.083589171154591 1
ion Pt   0.250019988401029   0.750018728017196   0.083590168618450 1
ion Pt   0.249985265313028   0.249976747562651   0.083591346732722 1
ion Pt   0.749983328520560   0.750016531053897   0.083591513710443 1
ion Pt   0.000003001277756   0.000014137622166   0.166350080625303 1
ion Pt  -0.000004405916419   0.499993915482170   0.166354446412319 1
ion Pt   0.500001115014672  -0.000011759473650   0.166372569045544 1
ion Pt   0.500036035671916   0.500040600180412   0.166350183327074 1


# Forces in Lattice coordinates:
force H  -0.043840540641714  -0.088420575348585  -0.008847859883226 1
force H   0.069725271531189   0.092955451352769  -0.032818393100398 1
force C   0.004635939683457  -0.049526045755537  -0.036693626378579 1
force O   0.094730242401357   0.056913044147784   0.010759601050218 1
force O  -0.126949817536486  -0.014142032529993   0.039185704443060 1
force Pt   0.000045556918634   0.000015143836791   0.332102447567649 0
force Pt  -0.000075349701228  -0.000048769287413   0.334205440020579 0
force Pt  -0.000033481949850  -0.000008329738592   0.332061589766523 0
force Pt   0.000042240456387  -0.000037186715775   0.330129231705811 0
force Pt  -0.000007587915396  -0.000037103880424  -0.287621127623460 0
force Pt   0.000047725803136  -0.000022439809231  -0.287658364294758 0
force Pt  -0.000036160036767  -0.000013072698386  -0.289065934928697 0
force Pt  -0.000168376518682  -0.000089241837733  -0.289832486196402 0
force Pt   0.000187704049982   0.000334179586767   0.029054193052815 1
force Pt  -0.000045324593389  -0.000406863002217   0.030669949631363 1
force Pt   0.000049241502295   0.000410387603295   0.034018337982556 1
force Pt  -0.000160355139655  -0.000306344573110   0.028387888521764 1
force Pt   0.000377630071891  -0.000365905588824   0.169969320204280 1
force Pt   0.000898495799880   0.000715716019858   0.171136618887187 1
force Pt  -0.000315025652666  -0.000842558792453   0.172214697362969 1
force Pt  -0.000669570333851   0.000833862624404   0.171617123946796 1
force Pt   0.000243803233204   0.000643883354251  -0.250796201825649 1
force Pt   0.000037040014875  -0.000302700814840  -0.248402277675312 1
force Pt  -0.000011913356122  -0.000384362405646  -0.230503220787354 1
force Pt   0.001416921758386   0.001697003310437  -0.248139784927046 1

# Energy components:
   Eewald =   -23880.1601824220815615
       EH =   -22346.3290165731668822
     Eloc =    44085.1546165637701051
      Enl =      -15.8420083015317701
      Exc =     -575.6983844967821824
 Exc_core =      324.9916890574764921
       KE =      588.6660517523391718
-------------------------------------
     Etot =    -1819.2172344199730105
       TS =        0.2427549924536873
-------------------------------------
        F =    -1819.4599894124266939

IonicMinimize: Iter:   2  F: -1819.459989412426694  |grad|_K:  3.648e-03  alpha:  1.000e+00  linmin: -5.079e-01  t[s]:  71153.91

#--- Lowdin population analysis ---
# oxidation-state H +0.202 +0.424
# oxidation-state C +0.439
# oxidation-state O -0.358 -0.394
# oxidation-state Pt +0.028 +0.028 +0.028 +0.028 -0.007 -0.007 -0.007 -0.007 +0.013 +0.013 +0.013 +0.013 -0.009 -0.009 -0.010 -0.009 +0.018 -0.001 +0.016 -0.012


-------- Electronic minimization -----------
	FillingsUpdate:  mu: -0.231501861  nElectrons: 338.000000
ElecMinimize: Iter:   0  F: -1819.333659225608471  |grad|_K:  8.131e-05  alpha:  1.000e+00
	FillingsUpdate:  mu: -0.185431361  nElectrons: 338.000000
	SubspaceRotationAdjust: set factor to 0.0451
ElecMinimize: Iter:   1  F: -1819.440182778736016  |grad|_K:  3.979e-05  alpha:  3.028e-01  linmin:  7.152e-04  t[s]:  71945.62
	FillingsUpdate:  mu: -0.206532324  nElectrons: 338.000000
	SubspaceRotationAdjust: set factor to 0.0239
ElecMinimize: Iter:   2  F: -1819.449590874064370  |grad|_K:  1.546e-05  alpha:  1.117e-01  linmin:  4.591e-05  t[s]:  72398.65
	FillingsUpdate:  mu: -0.207052475  nElectrons: 338.000000
	SubspaceRotationAdjust: set factor to 0.0413
ElecMinimize: Iter:   3  F: -1819.453718273013919  |grad|_K:  6.442e-06  alpha:  3.243e-01  linmin:  2.889e-06  t[s]:  72854.71
	FillingsUpdate:  mu: -0.207344279  nElectrons: 338.000000
	SubspaceRotationAdjust: set factor to 0.0359
ElecMinimize: Iter:   4  F: -1819.454388097902438  |grad|_K:  4.493e-06  alpha:  3.028e-01  linmin: -1.878e-05  t[s]:  73310.96
	FillingsUpdate:  mu: -0.207035016  nElectrons: 338.000000
	SubspaceRotationAdjust: set factor to 0.0392
ElecMinimize: Iter:   5  F: -1819.454790289495577  |grad|_K:  3.920e-06  alpha:  3.739e-01  linmin:  2.327e-05  t[s]:  73763.04
	FillingsUpdate:  mu: -0.206277413  nElectrons: 338.000000
	SubspaceRotationAdjust: set factor to 0.0453
ElecMinimize: Iter:   6  F: -1819.455474415302888  |grad|_K:  4.384e-06  alpha:  8.347e-01  linmin: -5.599e-05  t[s]:  74218.88
	FillingsUpdate:  mu: -0.205297600  nElectrons: 338.000000
	SubspaceRotationAdjust: set factor to 0.0459
ElecMinimize: Iter:   7  F: -1819.456508830418898  |grad|_K:  6.542e-06  alpha:  1.009e+00  linmin:  7.706e-05  t[s]:  74672.67
	FillingsUpdate:  mu: -0.203348862  nElectrons: 338.000000
	SubspaceRotationAdjust: set factor to 0.0373
ElecMinimize: Iter:   8  F: -1819.457622941127283  |grad|_K:  8.595e-06  alpha:  5.123e-01  linmin:  1.256e-04  t[s]:  75133.85
	FillingsUpdate:  mu: -0.202738737  nElectrons: 338.000000
	SubspaceRotationAdjust: set factor to 0.0264
ElecMinimize: Iter:   9  F: -1819.459007067040602  |grad|_K:  6.539e-06  alpha:  3.496e-01  linmin:  8.872e-06  t[s]:  75584.43
	FillingsUpdate:  mu: -0.202727196  nElectrons: 338.000000
	SubspaceRotationAdjust: set factor to 0.0294
ElecMinimize: Iter:  10  F: -1819.460139487393917  |grad|_K:  4.105e-06  alpha:  4.958e-01  linmin: -9.128e-05  t[s]:  76039.41
	FillingsUpdate:  mu: -0.203007797  nElectrons: 338.000000
	SubspaceRotationAdjust: set factor to 0.0286
ElecMinimize: Iter:  11  F: -1819.460548435551118  |grad|_K:  2.757e-06  alpha:  4.512e-01  linmin: -2.395e-05  t[s]:  76488.72
	FillingsUpdate:  mu: -0.203141956  nElectrons: 338.000000
	SubspaceRotationAdjust: set factor to 0.0235
ElecMinimize: Iter:  12  F: -1819.460694648570325  |grad|_K:  1.731e-06  alpha:  3.601e-01  linmin:  1.324e-05  t[s]:  76940.74
	FillingsUpdate:  mu: -0.203237958  nElectrons: 338.000000
	SubspaceRotationAdjust: set factor to 0.0234
ElecMinimize: Iter:  13  F: -1819.460752896860640  |grad|_K:  1.050e-06  alpha:  3.649e-01  linmin: -1.452e-05  t[s]:  77393.02
	FillingsUpdate:  mu: -0.203365082  nElectrons: 338.000000
	SubspaceRotationAdjust: set factor to 0.0306
ElecMinimize: Iter:  14  F: -1819.460780471079715  |grad|_K:  8.249e-07  alpha:  4.691e-01  linmin:  4.091e-06  t[s]:  77843.46
	FillingsUpdate:  mu: -0.203621765  nElectrons: 338.000000
	SubspaceRotationAdjust: set factor to 0.0382
ElecMinimize: Iter:  15  F: -1819.460800601923211  |grad|_K:  8.394e-07  alpha:  5.551e-01  linmin:  2.233e-06  t[s]:  78296.80
	FillingsUpdate:  mu: -0.204113126  nElectrons: 338.000000
	SubspaceRotationAdjust: set factor to 0.0407
ElecMinimize: Iter:  16  F: -1819.460824068657075  |grad|_K:  1.043e-06  alpha:  6.249e-01  linmin: -8.774e-06  t[s]:  78752.64
	FillingsUpdate:  mu: -0.204759012  nElectrons: 338.000000
	SubspaceRotationAdjust: set factor to 0.0376
ElecMinimize: Iter:  17  F: -1819.460852629026476  |grad|_K:  1.170e-06  alpha:  4.922e-01  linmin:  2.408e-06  t[s]:  79210.70
	FillingsUpdate:  mu: -0.205580402  nElectrons: 338.000000
	SubspaceRotationAdjust: set factor to 0.0356
ElecMinimize: Iter:  18  F: -1819.460890990876351  |grad|_K:  1.086e-06  alpha:  5.260e-01  linmin: -1.108e-05  t[s]:  79659.09
	FillingsUpdate:  mu: -0.206239765  nElectrons: 338.000000
	SubspaceRotationAdjust: set factor to 0.0363
ElecMinimize: Iter:  19  F: -1819.460924848865716  |grad|_K:  8.218e-07  alpha:  5.376e-01  linmin:  1.782e-06  t[s]:  80111.50
	FillingsUpdate:  mu: -0.206533145  nElectrons: 338.000000
	SubspaceRotationAdjust: set factor to 0.0391
ElecMinimize: Iter:  20  F: -1819.460941939171335  |grad|_K:  6.001e-07  alpha:  4.749e-01  linmin: -1.180e-06  t[s]:  80563.78
	FillingsUpdate:  mu: -0.206612688  nElectrons: 338.000000
	SubspaceRotationAdjust: set factor to 0.0451
ElecMinimize: Iter:  21  F: -1819.460950311835859  |grad|_K:  4.336e-07  alpha:  4.362e-01  linmin:  1.504e-06  t[s]:  81016.16
	FillingsUpdate:  mu: -0.206601607  nElectrons: 338.000000
	SubspaceRotationAdjust: set factor to 0.0508
ElecMinimize: Iter:  22  F: -1819.460954549972030  |grad|_K:  3.443e-07  alpha:  4.231e-01  linmin: -3.220e-06  t[s]:  81470.09
	FillingsUpdate:  mu: -0.206538188  nElectrons: 338.000000
	SubspaceRotationAdjust: set factor to 0.0437
ElecMinimize: Iter:  23  F: -1819.460957083928633  |grad|_K:  3.724e-07  alpha:  4.011e-01  linmin:  1.185e-05  t[s]:  81925.33
	FillingsUpdate:  mu: -0.206432019  nElectrons: 338.000000
	SubspaceRotationAdjust: set factor to 0.0412
ElecMinimize: Iter:  24  F: -1819.460959566892598  |grad|_K:  3.284e-07  alpha:  3.362e-01  linmin: -1.595e-06  t[s]:  82379.61
	FillingsUpdate:  mu: -0.206250763  nElectrons: 338.000000
	SubspaceRotationAdjust: set factor to 0.0451
ElecMinimize: Iter:  25  F: -1819.460962657569780  |grad|_K:  2.954e-07  alpha:  5.376e-01  linmin: -4.095e-06  t[s]:  82836.66
	FillingsUpdate:  mu: -0.206095990  nElectrons: 338.000000
	SubspaceRotationAdjust: set factor to 0.0496
ElecMinimize: Iter:  26  F: -1819.460965007699087  |grad|_K:  2.655e-07  alpha:  5.050e-01  linmin:  8.152e-07  t[s]:  83287.86
	FillingsUpdate:  mu: -0.205971635  nElectrons: 338.000000
	SubspaceRotationAdjust: set factor to 0.056
ElecMinimize: Iter:  27  F: -1819.460967048398970  |grad|_K:  2.155e-07  alpha:  5.435e-01  linmin: -2.445e-07  t[s]:  83743.55
	FillingsUpdate:  mu: -0.205918936  nElectrons: 338.000000
	SubspaceRotationAdjust: set factor to 0.0668
ElecMinimize: Iter:  28  F: -1819.460968180603459  |grad|_K:  1.718e-07  alpha:  4.576e-01  linmin:  3.513e-07  t[s]:  84198.22
	FillingsUpdate:  mu: -0.205888349  nElectrons: 338.000000
	SubspaceRotationAdjust: set factor to 0.0525
ElecMinimize: Iter:  29  F: -1819.460968803912920  |grad|_K:  1.993e-07  alpha:  3.966e-01  linmin:  6.535e-06  t[s]:  84653.04
	FillingsUpdate:  mu: -0.205864842  nElectrons: 338.000000
	SubspaceRotationAdjust: set factor to 0.0442
ElecMinimize: Iter:  30  F: -1819.460969241749126  |grad|_K:  1.509e-07  alpha:  2.069e-01  linmin:  1.225e-05  t[s]:  85110.25
	FillingsUpdate:  mu: -0.205821817  nElectrons: 338.000000
	SubspaceRotationAdjust: set factor to 0.0568
ElecMinimize: Iter:  31  F: -1819.460969767995039  |grad|_K:  1.233e-07  alpha:  4.351e-01  linmin:  2.413e-05  t[s]:  85563.64
	FillingsUpdate:  mu: -0.205793908  nElectrons: 338.000000
	SubspaceRotationAdjust: set factor to 0.0626
ElecMinimize: Iter:  32  F: -1819.460970171749295  |grad|_K:  1.266e-07  alpha:  4.987e-01  linmin: -2.925e-05  t[s]:  86016.93
	FillingsUpdate:  mu: -0.205779867  nElectrons: 338.000000
	SubspaceRotationAdjust: set factor to 0.0525
ElecMinimize: Iter:  33  F: -1819.460970404393947  |grad|_K:  1.338e-07  alpha:  2.708e-01  linmin: -2.088e-06  t[s]:  86470.13
	FillingsUpdate:  mu: -0.205758775  nElectrons: 338.000000
	SubspaceRotationAdjust: set factor to 0.0487
ElecMinimize: Iter:  34  F: -1819.460970687150621  |grad|_K:  9.458e-08  alpha:  2.964e-01  linmin: -1.434e-05  t[s]:  86921.63
	FillingsUpdate:  mu: -0.205739829  nElectrons: 338.000000
	SubspaceRotationAdjust: set factor to 0.0593
ElecMinimize: Iter:  35  F: -1819.460970899765243  |grad|_K:  6.702e-08  alpha:  4.484e-01  linmin:  8.231e-05  t[s]:  87370.89
	FillingsUpdate:  mu: -0.205732330  nElectrons: 338.000000
	SubspaceRotationAdjust: set factor to 0.0658
ElecMinimize: Iter:  36  F: -1819.460971012822711  |grad|_K:  6.261e-08  alpha:  4.744e-01  linmin:  3.399e-05  t[s]:  87827.14
	FillingsUpdate:  mu: -0.205728893  nElectrons: 338.000000
	SubspaceRotationAdjust: set factor to 0.0553
ElecMinimize: Iter:  37  F: -1819.460971065490639  |grad|_K:  6.181e-08  alpha:  2.571e-01  linmin: -5.892e-05  t[s]:  88279.69
	FillingsUpdate:  mu: -0.205727744  nElectrons: 338.000000
	SubspaceRotationAdjust: set factor to 0.0538
ElecMinimize: Iter:  38  F: -1819.460971117513964  |grad|_K:  4.416e-08  alpha:  2.581e-01  linmin:  2.332e-04  t[s]:  88735.82
	FillingsUpdate:  mu: -0.205733074  nElectrons: 338.000000
	SubspaceRotationAdjust: set factor to 0.0634
ElecMinimize: Iter:  39  F: -1819.460971165260844  |grad|_K:  3.866e-08  alpha:  4.752e-01  linmin:  2.168e-04  t[s]:  89190.01
	FillingsUpdate:  mu: -0.205744547  nElectrons: 338.000000
	SubspaceRotationAdjust: set factor to 0.0711
[...]
ElecMinimize: Iter:  21  F: -1819.461299127402754  |grad|_K:  2.552e-07  alpha:  4.520e-01  linmin:  5.404e-06  t[s]: 102775.38
	FillingsUpdate:  mu: -0.205928883  nElectrons: 338.000000
	SubspaceRotationAdjust: set factor to 0.041
ElecMinimize: Iter:  22  F: -1819.461300117319979  |grad|_K:  2.102e-07  alpha:  2.854e-01  linmin:  1.762e-05  t[s]: 103226.64
	FillingsUpdate:  mu: -0.206010824  nElectrons: 338.000000
	SubspaceRotationAdjust: set factor to 0.0446
ElecMinimize: Iter:  23  F: -1819.461300972672007  |grad|_K:  1.621e-07  alpha:  3.636e-01  linmin:  3.701e-06  t[s]: 103683.59
	FillingsUpdate:  mu: -0.206044362  nElectrons: 338.000000
	SubspaceRotationAdjust: set factor to 0.0532
ElecMinimize: Iter:  24  F: -1819.461301774702633  |grad|_K:  1.562e-07  alpha:  5.742e-01  linmin:  4.388e-05  t[s]: 104138.19
	FillingsUpdate:  mu: -0.206034678  nElectrons: 338.000000
	SubspaceRotationAdjust: set factor to 0.0634
ElecMinimize: Iter:  25  F: -1819.461302540760471  |grad|_K:  1.378e-07  alpha:  5.891e-01  linmin: -8.307e-06  t[s]: 104589.57
	FillingsUpdate:  mu: -0.205992698  nElectrons: 338.000000
	SubspaceRotationAdjust: set factor to 0.0711
ElecMinimize: Iter:  26  F: -1819.461303159439012  |grad|_K:  1.366e-07  alpha:  6.099e-01  linmin: -1.862e-05  t[s]: 105040.12
	FillingsUpdate:  mu: -0.205937401  nElectrons: 338.000000
	SubspaceRotationAdjust: set factor to 0.0547
ElecMinimize: Iter:  27  F: -1819.461303564738273  |grad|_K:  1.683e-07  alpha:  4.073e-01  linmin: -1.114e-05  t[s]: 105494.02
	FillingsUpdate:  mu: -0.205892713  nElectrons: 338.000000
	SubspaceRotationAdjust: set factor to 0.04
ElecMinimize: Iter:  28  F: -1819.461303818412262  |grad|_K:  1.031e-07  alpha:  1.679e-01  linmin: -3.525e-06  t[s]: 105950.59
	FillingsUpdate:  mu: -0.205845902  nElectrons: 338.000000
	SubspaceRotationAdjust: set factor to 0.0531
ElecMinimize: Iter:  29  F: -1819.461304070959841  |grad|_K:  8.109e-08  alpha:  4.449e-01  linmin: -4.461e-05  t[s]: 106402.78
	FillingsUpdate:  mu: -0.205810244  nElectrons: 338.000000
	SubspaceRotationAdjust: set factor to 0.0539
ElecMinimize: Iter:  30  F: -1819.461304226281300  |grad|_K:  7.804e-08  alpha:  4.434e-01  linmin:  1.696e-05  t[s]: 106851.46
	FillingsUpdate:  mu: -0.205782603  nElectrons: 338.000000
	SubspaceRotationAdjust: set factor to 0.0462
ElecMinimize: Iter:  31  F: -1819.461304309193565  |grad|_K:  7.152e-08  alpha:  2.552e-01  linmin:  2.167e-05  t[s]: 107303.14
	FillingsUpdate:  mu: -0.205744587  nElectrons: 338.000000
	SubspaceRotationAdjust: set factor to 0.0533
ElecMinimize: Iter:  32  F: -1819.461304410010143  |grad|_K:  5.391e-08  alpha:  3.675e-01  linmin:  7.542e-05  t[s]: 107747.15
	FillingsUpdate:  mu: -0.205717450  nElectrons: 338.000000
	SubspaceRotationAdjust: set factor to 0.0656
ElecMinimize: Iter:  33  F: -1819.461304499943481  |grad|_K:  5.059e-08  alpha:  5.917e-01  linmin:  1.501e-05  t[s]: 108200.48
	FillingsUpdate:  mu: -0.205707416  nElectrons: 338.000000
	SubspaceRotationAdjust: set factor to 0.0518
ElecMinimize: Iter:  34  F: -1819.461304559171140  |grad|_K:  6.228e-08  alpha:  4.326e-01  linmin:  9.513e-07  t[s]: 108650.68
	FillingsUpdate:  mu: -0.205705044  nElectrons: 338.000000
	SubspaceRotationAdjust: set factor to 0.0378
ElecMinimize: Iter:  35  F: -1819.461304596935406  |grad|_K:  3.961e-08  alpha:  1.810e-01  linmin:  1.147e-05  t[s]: 109106.06
	FillingsUpdate:  mu: -0.205702703  nElectrons: 338.000000
	SubspaceRotationAdjust: set factor to 0.0474
ElecMinimize: Iter:  36  F: -1819.461304635182387  |grad|_K:  3.097e-08  alpha:  4.625e-01  linmin:  1.572e-04  t[s]: 109558.58
	FillingsUpdate:  mu: -0.205701903  nElectrons: 338.000000
	SubspaceRotationAdjust: set factor to 0.046
ElecMinimize: Iter:  37  F: -1819.461304653715160  |grad|_K:  2.561e-08  alpha:  3.763e-01  linmin: -6.441e-05  t[s]: 110017.77
	FillingsUpdate:  mu: -0.205705238  nElectrons: 338.000000
	SubspaceRotationAdjust: set factor to 0.0374
ElecMinimize: Iter:  38  F: -1819.461304662739394  |grad|_K:  1.981e-08  alpha:  2.579e-01  linmin:  2.050e-04  t[s]: 110478.71
	FillingsUpdate:  mu: -0.205711142  nElectrons: 338.000000
	SubspaceRotationAdjust: set factor to 0.045
ElecMinimize: Iter:  39  F: -1819.461304669749097  |grad|_K:  1.393e-08  alpha:  3.520e-01  linmin:  2.054e-04  t[s]: 110933.92
ElecMinimize: Converged (|Delta F|<1.000000e-08 for 2 iters).
Setting wave functions to eigenvectors of Hamiltonian

# Ionic positions in lattice coordinates:
ion H   0.609064199059097   0.659587633085774   0.311964456126901 1
ion H   0.168940300977641   0.403713722026793   0.311859670793990 1
ion C   0.493243823219924   0.495757995830332   0.311839173073901 1
ion O   0.568892122741157   0.289221612193948   0.312056829670127 1
ion O   0.259688394171813   0.558505136129654   0.312164516782200 1
ion Pt   0.000000000000000   0.000000000000000  -0.166700000000000 0
ion Pt   0.500000000000000   0.500000000000000  -0.166700000000000 0
ion Pt   0.000000000000000   0.500000000000000  -0.166700000000000 0
ion Pt   0.500000000000000   0.000000000000000  -0.166700000000000 0
ion Pt   0.750000000000000   0.250000000000000  -0.083300000000000 0
ion Pt   0.250000000000000   0.750000000000000  -0.083300000000000 0
ion Pt   0.250000000000000   0.250000000000000  -0.083300000000000 0
ion Pt   0.750000000000000   0.750000000000000  -0.083300000000000 0
ion Pt   0.500016009929981   0.000025757886637   0.000125873822353 1
ion Pt  -0.000004822473531  -0.000031377437228   0.000131817215428 1
ion Pt   0.000003951347762   0.500031435477995   0.000145967617058 1
ion Pt   0.499987552893010   0.499976694639380   0.000122733179112 1
ion Pt   0.750029960626204   0.249974997283127   0.084044153956954 1
ion Pt   0.250067510118004   0.750056553534175   0.084048043735003 1
ion Pt   0.249974989759851   0.249933801378631   0.084053047007216 1
ion Pt   0.749950170227897   0.750061468330441   0.084050499794245 1
ion Pt   0.000017251434134   0.000049506825326   0.165620138588251 1
ion Pt   0.000001790999821   0.499979345402906   0.165633730384777 1
ion Pt   0.500001194412492  -0.000027903376125   0.165704380504333 1
ion Pt   0.500110732061142   0.500133083684461   0.165627570016693 1


# Forces in Lattice coordinates:
force H  -0.003447579005005   0.010436951499062  -0.017335545706171 1
force H  -0.023391682445574   0.011878854754331  -0.022050651968911 1
force C   0.042265480248475  -0.079283592318564   0.007177298177794 1
force O  -0.033160947815774   0.104401475355299  -0.011857705203334 1
force O   0.017276155886725  -0.050492539205552   0.012403858414429 1
force Pt   0.000029290485247   0.000008322494247   0.334535384385882 0
force Pt  -0.000076014035509  -0.000055511673017   0.336552196081128 0
force Pt  -0.000035505021563  -0.000028943497106   0.334485029005419 0
force Pt   0.000018300736697  -0.000046206971939   0.332216545976228 0
force Pt   0.000189569200391   0.000037524734021  -0.270076679394011 0
force Pt  -0.000014278648612  -0.000049647806540  -0.270195403250343 0
force Pt  -0.000242785820131   0.000016044973205  -0.271499372814506 0
force Pt  -0.000108006489362  -0.000165687821697  -0.272368654700660 0
force Pt   0.000004665370714   0.000093370424568   0.049633202852930 1
force Pt   0.000094641286605  -0.000071468884662   0.050078894591380 1
force Pt   0.000010344352731   0.000086377349550   0.052164350433366 1
force Pt  -0.000066450812355  -0.000070289964701   0.049713624477109 1
force Pt  -0.000315651529532  -0.000096377035389  -0.029776061179289 1
force Pt   0.000521260724052   0.000206454273093  -0.029279157898333 1
force Pt   0.000555351630319  -0.000120868247603  -0.028281548336599 1
force Pt  -0.000182443676298   0.000578667110712  -0.030114338374891 1
force Pt   0.000233684021395   0.000329360111657  -0.077774207546265 1
force Pt   0.000409810899635  -0.000029857703137  -0.078374377801831 1
force Pt   0.000049723609762   0.000207597943083  -0.065102990814503 1
force Pt   0.000632117087659   0.000820510973125  -0.078752999185885 1

# Energy components:
   Eewald =   -23861.1775921125190507
       EH =   -22327.5753632190680946
     Eloc =    44047.4044559244794073
      Enl =      -15.8373996612018537
      Exc =     -575.7189734660004206
 Exc_core =      324.9916941647382487
       KE =      588.6941565967929364
-------------------------------------
     Etot =    -1819.2190217727750223
       TS =        0.2422828969741190
-------------------------------------
        F =    -1819.4613046697490972

IonicMinimize: Iter:   4  F: -1819.461304669749097  |grad|_K:  2.147e-03  alpha:  1.000e+00  linmin:  7.029e-02  t[s]: 111005.76

#--- Lowdin population analysis ---
# oxidation-state H +0.204 +0.426
# oxidation-state C +0.434
# oxidation-state O -0.357 -0.396
# oxidation-state Pt +0.028 +0.028 +0.028 +0.028 -0.008 -0.008 -0.008 -0.008 +0.012 +0.012 +0.012 +0.011 -0.009 -0.009 -0.009 -0.009 +0.021 +0.002 +0.018 -0.010


-------- Electronic minimization -----------
	FillingsUpdate:  mu: -0.205897853  nElectrons: 338.000000
ElecMinimize: Iter:   0  F: -1819.461359344207267  |grad|_K:  9.646e-07  alpha:  1.000e+00
	FillingsUpdate:  mu: -0.205719547  nElectrons: 338.000000
	SubspaceRotationAdjust: set factor to 0.0347
ElecMinimize: Iter:   1  F: -1819.461375695566176  |grad|_K:  6.402e-07  alpha:  3.297e-01  linmin: -2.872e-05  t[s]: 111840.16
	FillingsUpdate:  mu: -0.205702685  nElectrons: 338.000000
	SubspaceRotationAdjust: set factor to 0.0256
ElecMinimize: Iter:   2  F: -1819.461379801354269  |grad|_K:  3.146e-07  alpha:  1.880e-01  linmin: -3.784e-06  t[s]: 112291.70
ElecMinimize: 	Predicted alpha/alphaT>3.000000, increasing alphaT to 5.638915e-01.
	FillingsUpdate:  mu: -0.205770111  nElectrons: 338.000000
	SubspaceRotationAdjust: set factor to 0.0371
ElecMinimize: Iter:   3  F: -1819.461383006368351  |grad|_K:  2.713e-07  alpha:  6.077e-01  linmin:  1.288e-05  t[s]: 112853.30
	FillingsUpdate:  mu: -0.205735731  nElectrons: 338.000000
	SubspaceRotationAdjust: set factor to 0.0387
ElecMinimize: Iter:   4  F: -1819.461385368305173  |grad|_K:  3.034e-07  alpha:  6.022e-01  linmin: -8.114e-06  t[s]: 113307.81
	FillingsUpdate:  mu: -0.205690312  nElectrons: 338.000000
	SubspaceRotationAdjust: set factor to 0.0352
ElecMinimize: Iter:   5  F: -1819.461388119216736  |grad|_K:  4.312e-07  alpha:  5.608e-01  linmin:  2.480e-06  t[s]: 113760.35
	FillingsUpdate:  mu: -0.205683231  nElectrons: 338.000000
	SubspaceRotationAdjust: set factor to 0.0334
ElecMinimize: Iter:   6  F: -1819.461394518889165  |grad|_K:  4.723e-07  alpha:  6.461e-01  linmin:  5.255e-06  t[s]: 114214.52
	FillingsUpdate:  mu: -0.205794497  nElectrons: 338.000000
	SubspaceRotationAdjust: set factor to 0.0355
ElecMinimize: Iter:   7  F: -1819.461405321506845  |grad|_K:  4.836e-07  alpha:  9.087e-01  linmin: -5.413e-07  t[s]: 114669.40
	FillingsUpdate:  mu: -0.205736114  nElectrons: 338.000000
	SubspaceRotationAdjust: set factor to 0.032
ElecMinimize: Iter:   8  F: -1819.461411875929343  |grad|_K:  3.787e-07  alpha:  5.258e-01  linmin: -7.186e-07  t[s]: 115121.14
	FillingsUpdate:  mu: -0.205714157  nElectrons: 338.000000
	SubspaceRotationAdjust: set factor to 0.0213
ElecMinimize: Iter:   9  F: -1819.461414094203974  |grad|_K:  2.530e-07  alpha:  2.904e-01  linmin: -9.042e-07  t[s]: 115572.94
	FillingsUpdate:  mu: -0.205731925  nElectrons: 338.000000
	SubspaceRotationAdjust: set factor to 0.0234
ElecMinimize: Iter:  10  F: -1819.461415334558069  |grad|_K:  1.309e-07  alpha:  3.641e-01  linmin:  7.411e-05  t[s]: 116026.77
	FillingsUpdate:  mu: -0.205747245  nElectrons: 338.000000
	SubspaceRotationAdjust: set factor to 0.0267
ElecMinimize: Iter:  11  F: -1819.461415734102502  |grad|_K:  8.653e-08  alpha:  4.385e-01  linmin:  5.842e-05  t[s]: 116483.12
	FillingsUpdate:  mu: -0.205747308  nElectrons: 338.000000
	SubspaceRotationAdjust: set factor to 0.029
ElecMinimize: Iter:  12  F: -1819.461415893248386  |grad|_K:  6.586e-08  alpha:  3.992e-01  linmin: -1.780e-04  t[s]: 116939.37
	FillingsUpdate:  mu: -0.205747107  nElectrons: 338.000000
	SubspaceRotationAdjust: set factor to 0.0341
ElecMinimize: Iter:  13  F: -1819.461416015638861  |grad|_K:  6.090e-08  alpha:  5.363e-01  linmin:  7.169e-04  t[s]: 117399.57
	FillingsUpdate:  mu: -0.205759693  nElectrons: 338.000000
	SubspaceRotationAdjust: set factor to 0.0395
ElecMinimize: Iter:  14  F: -1819.461416160585486  |grad|_K:  7.195e-08  alpha:  7.485e-01  linmin: -1.390e-04  t[s]: 117849.74
	FillingsUpdate:  mu: -0.205775482  nElectrons: 338.000000
	SubspaceRotationAdjust: set factor to 0.0435
ElecMinimize: Iter:  15  F: -1819.461416343293649  |grad|_K:  8.097e-08  alpha:  6.534e-01  linmin: -1.396e-05  t[s]: 118299.46
	FillingsUpdate:  mu: -0.205779466  nElectrons: 338.000000
	SubspaceRotationAdjust: set factor to 0.0464
ElecMinimize: Iter:  16  F: -1819.461416567241031  |grad|_K:  7.457e-08  alpha:  6.387e-01  linmin: -3.886e-05  t[s]: 118754.91
	FillingsUpdate:  mu: -0.205774264  nElectrons: 338.000000
	SubspaceRotationAdjust: set factor to 0.0405
ElecMinimize: Iter:  17  F: -1819.461416707815943  |grad|_K:  7.257e-08  alpha:  4.716e-01  linmin:  5.060e-05  t[s]: 119211.07
	FillingsUpdate:  mu: -0.205772175  nElectrons: 338.000000
	SubspaceRotationAdjust: set factor to 0.0287
ElecMinimize: Iter:  18  F: -1819.461416774400277  |grad|_K:  4.779e-08  alpha:  2.392e-01  linmin: -6.025e-05  t[s]: 119665.04
	FillingsUpdate:  mu: -0.205772163  nElectrons: 338.000000
	SubspaceRotationAdjust: set factor to 0.0352
ElecMinimize: Iter:  19  F: -1819.461416824239222  |grad|_K:  2.964e-08  alpha:  3.991e-01  linmin: -3.841e-04  t[s]: 120118.49
	FillingsUpdate:  mu: -0.205771286  nElectrons: 338.000000
	SubspaceRotationAdjust: set factor to 0.041
ElecMinimize: Iter:  20  F: -1819.461416843230609  |grad|_K:  2.213e-08  alpha:  3.891e-01  linmin: -8.435e-04  t[s]: 120570.08
	FillingsUpdate:  mu: -0.205766343  nElectrons: 338.000000
	SubspaceRotationAdjust: set factor to 0.0406
ElecMinimize: Iter:  21  F: -1819.461416854308482  |grad|_K:  2.144e-08  alpha:  4.182e-01  linmin:  1.106e-03  t[s]: 121026.76
	FillingsUpdate:  mu: -0.205760635  nElectrons: 338.000000
	SubspaceRotationAdjust: set factor to 0.0414
ElecMinimize: Iter:  22  F: -1819.461416861621501  |grad|_K:  1.724e-08  alpha:  3.341e-01  linmin: -6.041e-05  t[s]: 121480.54
	FillingsUpdate:  mu: -0.205757407  nElectrons: 338.000000
	SubspaceRotationAdjust: set factor to 0.0551
ElecMinimize: Iter:  23  F: -1819.461416868152355  |grad|_K:  1.338e-08  alpha:  3.915e-01  linmin: -9.792e-04  t[s]: 121932.66
ElecMinimize: Converged (|Delta F|<1.000000e-08 for 2 iters).
Setting wave functions to eigenvectors of Hamiltonian

# Ionic positions in lattice coordinates:
ion H   0.608906132362257   0.659486680310863   0.311954342811380 1
ion H   0.168677176699687   0.403843043107833   0.311846716749125 1
ion C   0.493535638551694   0.495644793977697   0.311843047477395 1
ion O   0.568731468285948   0.289837970881066   0.312051313742063 1
ion O   0.259971519364340   0.557939632764353   0.312171674846549 1
ion Pt   0.000000000000000   0.000000000000000  -0.166700000000000 0
ion Pt   0.500000000000000   0.500000000000000  -0.166700000000000 0
ion Pt   0.000000000000000   0.500000000000000  -0.166700000000000 0
ion Pt   0.500000000000000   0.000000000000000  -0.166700000000000 0
ion Pt   0.750000000000000   0.250000000000000  -0.083300000000000 0
ion Pt   0.250000000000000   0.750000000000000  -0.083300000000000 0
ion Pt   0.250000000000000   0.250000000000000  -0.083300000000000 0
ion Pt   0.750000000000000   0.750000000000000  -0.083300000000000 0
ion Pt   0.500016247968072   0.000026907133117   0.000156141958175 1
ion Pt  -0.000003973256972  -0.000032252633233   0.000162307210548 1
ion Pt   0.000004081005640   0.500032493547623   0.000177725202453 1
ion Pt   0.499986792702597   0.499975816187656   0.000152995656970 1
ion Pt   0.750027000518355   0.249974033931375   0.084034092093603 1
ion Pt   0.250072959870612   0.750059103119643   0.084038225403883 1
ion Pt   0.249980341399532   0.249932087805560   0.084043866151399 1
ion Pt   0.749948182762179   0.750067530519197   0.084040273840006 1
ion Pt   0.000019765821391   0.000053339901150   0.165568388407035 1
ion Pt   0.000005963425413   0.499978773833314   0.165582152011644 1
ion Pt   0.500001658118673  -0.000025920083260   0.165660348118277 1
ion Pt   0.500117612117695   0.500142295812815   0.165575544926656 1


# Forces in Lattice coordinates:
force H   0.001715273298758   0.018781326238318  -0.016097160193553 1
force H  -0.025534846327762  -0.002632773611500  -0.021470153332564 1
force C   0.013587842584034  -0.033595262129553   0.008316745234919 1
force O  -0.000975883748624   0.036510036439104  -0.011035826273220 1
force O   0.010381718314290  -0.022334697184821   0.011483724372137 1
force Pt   0.000028519896620   0.000008210041013   0.335638661212879 0
force Pt  -0.000077770587555  -0.000053974725230   0.337899658850404 0
force Pt  -0.000033224350990  -0.000030926671185   0.335618966217932 0
force Pt   0.000017095366460  -0.000049498432110   0.333407975847470 0
force Pt   0.000193320477563   0.000048717790017  -0.266143218608854 0
force Pt  -0.000008431057519  -0.000060733495417  -0.266244329474509 0
force Pt  -0.000245070973660   0.000027051667023  -0.267532188383856 0
force Pt  -0.000112312867387  -0.000177750922700  -0.268383487687724 0
force Pt  -0.000000625104813   0.000072873621023   0.039045051725220 1
force Pt   0.000091724867132  -0.000035241435764   0.039345311380787 1
force Pt   0.000006986087706   0.000054998172054   0.041331750006501 1
force Pt  -0.000054891364239  -0.000046559946537   0.039232809590553 1
force Pt  -0.000304535665750  -0.000045814582485  -0.032557203635425 1
force Pt   0.000461751811505   0.000189172422178  -0.032418471013869 1
force Pt   0.000545567673201  -0.000077130711207  -0.031516550090969 1
force Pt  -0.000128328791264   0.000511191312814  -0.033116041761464 1
force Pt   0.000132667878296   0.000374040802536  -0.071361890545787 1
force Pt   0.000286623718298  -0.000075209581168  -0.070492193353206 1
force Pt   0.000154379561950   0.000313786044062  -0.058846010029459 1
force Pt   0.000680069250849   0.000656802138446  -0.070135198063735 1

# Energy components:
   Eewald =   -23858.9351446860237047
       EH =   -22325.3578058479761239
     Eloc =    44042.9297092729029828
      Enl =      -15.8331643738341814
      Exc =     -575.7260489402772237
 Exc_core =      324.9916949561627462
       KE =      588.7115826124012301
-------------------------------------
     Etot =    -1819.2191770066442587
       TS =        0.2422398615081471
-------------------------------------
        F =    -1819.4614168681523552

IonicMinimize: Iter:   5  F: -1819.461416868152355  |grad|_K:  1.030e-03  alpha:  1.000e+00  linmin: -2.875e-01  t[s]: 122005.22
IonicMinimize: None of the convergence criteria satisfied after 5 iterations.

#--- Lowdin population analysis ---
# oxidation-state H +0.204 +0.426
# oxidation-state C +0.435
# oxidation-state O -0.355 -0.398
# oxidation-state Pt +0.028 +0.028 +0.028 +0.028 -0.007 -0.007 -0.007 -0.007 +0.012 +0.012 +0.011 +0.011 -0.009 -0.009 -0.009 -0.009 +0.020 +0.002 +0.018 -0.009


Dumping '100_4-Vacuum.fillings' ... done
Dumping '100_4-Vacuum.wfns' ... done
Dumping '100_4-Vacuum.ionpos' ... done
Dumping '100_4-Vacuum.n' ... done
Dumping '100_4-Vacuum.eigenvals' ... done
Dumping '100_4-Vacuum.eigStats' ... 
	eMin: -2.156606 at state 0 ( [ +0.000000 +0.000000 +0.000000 ] spin 0 )
	HOMO: -0.205970 at state 3 ( [ +0.250000 +0.000000 +0.000000 ] spin 0 )
	mu  : -0.205757
	LUMO: -0.205680 at state 1 ( [ +0.000000 +0.250000 +0.000000 ] spin 0 )
	eMax: +0.320450 at state 2 ( [ +0.000000 +0.500000 +0.000000 ] spin 0 )
	HOMO-LUMO gap: +0.000291
	Optical gap  : +0.000291 at state 3 ( [ +0.250000 +0.000000 +0.000000 ] spin 0 )
Dumping '100_4-Vacuum.Ecomponents' ... done
End date and time: Mon Apr 29 04:36:39 2019  (Duration: 1-9:54:38.15)
Done!
