--------------------------------------------------------------------------
Initialization of PSM library failed.

  Error: PSM is in the finalized state
--------------------------------------------------------------------------
--------------------------------------------------------------------------
The OpenFabrics (openib) BTL failed to initialize while trying to
allocate some locked memory.  This typically can indicate that the
memlock limits are set too low.  For most HPC installations, the
memlock limits should be set to "unlimited".  The failure occured
here:

  Local host:    node2003
  OMPI source:   btl_openib.c:753
  Function:      ompi_free_list_init_ex_new()
  Device:        qib0
  Memlock limit: 65536

You may need to consult with your system administrator to get this
problem fixed.  This FAQ entry on the Open MPI web site may also be
helpful:

    http://www.open-mpi.org/faq/?category=openfabrics#ib-locked-pages
--------------------------------------------------------------------------

*************** JDFTx 1.4.2 (git hash 74b6e54) ***************

Start date and time: Thu Apr 25 15:38:08 2019
Executable /home/jfm343/JDFTXDIR/build/jdftx with command-line: -i Solvated.in
Running on hosts (process indices):  node2003.physics.cornell.edu (0)
Divided in process groups (process indices):  0 (0)
Resource initialization completed at t[s]:      0.00
Run totals: 1 processes, 12 threads, 0 GPUs


Input parsed successfully to the following command list (including defaults):

basis kpoint-dependent
coords-type Lattice
core-overlap-check vector
coulomb-interaction Slab 001
coulomb-truncation-embed 0 0 0
davidson-band-ratio 1.1
dump End IonicPositions ElecDensity EigStats Ecomponents
dump-name 100_3-Solvated.$VAR
elec-cutoff 20 100
elec-eigen-algo Davidson
elec-ex-corr gga-PBEsol
elec-smearing Fermi 0.01
electronic-minimize  \
	dirUpdateScheme      FletcherReeves \
	linminMethod         DirUpdateRecommended \
	nIterations          200 \
	history              15 \
	knormThreshold       0 \
	energyDiffThreshold  1e-08 \
	nEnergyDiff          2 \
	alphaTstart          1 \
	alphaTmin            1e-10 \
	updateTestStepSize   yes \
	alphaTreduceFactor   0.1 \
	alphaTincreaseFactor 3 \
	nAlphaAdjustMax      3 \
	wolfeEnergy          0.0001 \
	wolfeGradient        0.9 \
	fdTest               no
exchange-regularization WignerSeitzTruncated
fluid NonlinearPCM 298.000000 1.013250
fluid-anion ClO4- 0.2 MeanFieldLJ \
	epsBulk 1 \
	pMol 0 \
	epsInf 1 \
	Pvap 0 \
	sigmaBulk 0 \
	Rvdw 4.55424 \
	Res 0 \
	tauNuc 343133 \
	omegaEl 0.55124 \
	gammaEl 0.257245
fluid-cation Na+ 0.2 MeanFieldLJ \
	epsBulk 1 \
	pMol 0 \
	epsInf 1 \
	Pvap 0 \
	sigmaBulk 0 \
	Rvdw 2.19208 \
	Res 0 \
	tauNuc 343133 \
	omegaEl 0.55124 \
	gammaEl 0.257245
fluid-ex-corr lda-TF lda-PZ
fluid-gummel-loop 10 1.000000e-05
fluid-minimize  \
	dirUpdateScheme      PolakRibiere \
	linminMethod         DirUpdateRecommended \
	nIterations          100 \
	history              15 \
	knormThreshold       1e-11 \
	energyDiffThreshold  0 \
	nEnergyDiff          2 \
	alphaTstart          1 \
	alphaTmin            1e-10 \
	updateTestStepSize   yes \
	alphaTreduceFactor   0.1 \
	alphaTincreaseFactor 3 \
	nAlphaAdjustMax      6 \
	wolfeEnergy          0.0001 \
	wolfeGradient        0.9 \
	fdTest               no
fluid-solvent H2O 55.338 ScalarEOS \
	epsBulk 78.4 \
	pMol 0.92466 \
	epsInf 1.77 \
	Pvap 1.06736e-10 \
	sigmaBulk 4.62e-05 \
	Rvdw 2.61727 \
	Res 1.42 \
	tauNuc 343133 \
	omegaEl 0.55124 \
	gammaEl 0.257245
forces-output-coords Positions
initial-state 100_3-Vacuum.$VAR
ion O   0.500000000000000   0.500000000000000   0.297725061116489 1
ion C   0.500000000000000   0.500000000000000   0.248650602189231 1
ion Pt   0.000000000000000   0.000000000000000  -0.166700000000000 0
ion Pt   0.500000000000000   0.500000000000000  -0.166700000000000 0
ion Pt   0.000000000000000   0.500000000000000  -0.166700000000000 0
ion Pt   0.500000000000000   0.000000000000000  -0.166700000000000 0
ion Pt   0.750000000000000   0.250000000000000  -0.083300000000000 0
ion Pt   0.250000000000000   0.750000000000000  -0.083300000000000 0
ion Pt   0.250000000000000   0.250000000000000  -0.083300000000000 0
ion Pt   0.750000000000000   0.750000000000000  -0.083300000000000 0
ion Pt   0.500000000000000   0.000000000000000   0.000248945478794 1
ion Pt   0.000000000000000   0.000000000000000  -0.001623265635983 1
ion Pt   0.000000000000000   0.500000000000000   0.000248945478794 1
ion Pt   0.500000000000000   0.500000000000000  -0.000005850471840 1
ion Pt   0.748978989447437   0.251021010552563   0.082697169826353 1
ion Pt   0.251021010552563   0.748978989447437   0.082697169826353 1
ion Pt   0.251021010552563   0.251021010552563   0.082697169826353 1
ion Pt   0.748978989447437   0.748978989447437   0.082697169826353 1
ion Pt   0.000000000000000   0.000000000000000   0.164024439230836 1
ion Pt   0.000000000000000   0.500000000000000   0.162380226861314 1
ion Pt   0.500000000000000   0.000000000000000   0.162380226861314 1
ion Pt   0.500000000000000   0.500000000000000   0.171335121304972 1
ion-species GBRV/$ID_pbesol.uspp
ion-width Ecut
ionic-minimize  \
	dirUpdateScheme      L-BFGS \
	linminMethod         DirUpdateRecommended \
	nIterations          0 \
	history              15 \
	knormThreshold       0.0001 \
	energyDiffThreshold  1e-06 \
	nEnergyDiff          2 \
	alphaTstart          1 \
	alphaTmin            1e-10 \
	updateTestStepSize   yes \
	alphaTreduceFactor   0.1 \
	alphaTincreaseFactor 3 \
	nAlphaAdjustMax      3 \
	wolfeEnergy          0.0001 \
	wolfeGradient        0.9 \
	fdTest               no
kpoint   0.000000000000   0.000000000000   0.000000000000  1.00000000000000
kpoint-folding 4 4 1 
latt-move-scale 1 1 1
latt-scale 1 1 1 
lattice Tetragonal 10.4793 44.446
lattice-minimize  \
	dirUpdateScheme      L-BFGS \
	linminMethod         DirUpdateRecommended \
	nIterations          0 \
	history              15 \
	knormThreshold       0 \
	energyDiffThreshold  1e-06 \
	nEnergyDiff          2 \
	alphaTstart          1 \
	alphaTmin            1e-10 \
	updateTestStepSize   yes \
	alphaTreduceFactor   0.1 \
	alphaTincreaseFactor 3 \
	nAlphaAdjustMax      3 \
	wolfeEnergy          0.0001 \
	wolfeGradient        0.9 \
	fdTest               no
lcao-params -1 1e-06 0.01
pcm-variant GLSSA13
spintype no-spin
subspace-rotation-factor 1 yes
symmetries automatic
symmetry-threshold 0.0001
target-mu -0.1736 no




---------- Setting up symmetries ----------

Found 16 point-group symmetries of the bravais lattice
Found 8 space-group symmetries with basis
Applied RMS atom displacement 0 bohrs to make symmetries exact.

---------- Initializing the Grid ----------
R = 
[    10.4793          0          0  ]
[          0    10.4793          0  ]
[          0          0     44.446  ]
unit cell volume = 4880.87
G =
[   0.599581          0          0  ]
[          0   0.599581          0  ]
[          0          0   0.141367  ]
Minimum fftbox size, Smin = [  48  48  204  ]
Chosen fftbox size, S = [  48  48  210  ]

---------- Initializing tighter grid for wavefunction operations ----------
R = 
[    10.4793          0          0  ]
[          0    10.4793          0  ]
[          0          0     44.446  ]
unit cell volume = 4880.87
G =
[   0.599581          0          0  ]
[          0   0.599581          0  ]
[          0          0   0.141367  ]
Minimum fftbox size, Smin = [  44  44  180  ]
Chosen fftbox size, S = [  48  48  180  ]

---------- Exchange Correlation functional ----------
Initalized PBEsol GGA exchange.
Initalized PBEsol GGA correlation.

---------- Setting up pseudopotentials ----------
Width of ionic core gaussian charges (only for fluid interactions / plotting) set to 0.397384

Reading pseudopotential file '/home/jfm343/JDFTXDIR/build/pseudopotentials/GBRV/o_pbesol.uspp':
  Title: O.  Created by USPP 7.3.6 on 3-2-2014
  Reference state energy: -15.849885.  6 valence electrons in orbitals:
    |200>  occupation: 2  eigenvalue: -0.873214
    |210>  occupation: 4  eigenvalue: -0.330058
  lMax: 2  lLocal: 2  QijEcut: 6
  5 projectors sampled on a log grid with 511 points:
    l: 0  eig: -0.873214  rCut: 1.25
    l: 0  eig: 0.000000  rCut: 1.25
    l: 1  eig: -0.330058  rCut: 1.25
    l: 1  eig: 0.000000  rCut: 1.25
    l: 2  eig: 1.000000  rCut: 1.25
  Partial core density with radius 0.7
  Transforming core density to a uniform radial grid of dG=0.02 with 1265 points.
  Transforming local potential to a uniform radial grid of dG=0.02 with 1265 points.
  Transforming nonlocal projectors to a uniform radial grid of dG=0.02 with 432 points.
  Transforming density augmentations to a uniform radial grid of dG=0.02 with 1265 points.
  Transforming atomic orbitals to a uniform radial grid of dG=0.02 with 432 points.
  Core radius for overlap checks: 1.25 bohrs.

Reading pseudopotential file '/home/jfm343/JDFTXDIR/build/pseudopotentials/GBRV/c_pbesol.uspp':
  Title: C.  Created by USPP 7.3.6 on 3-2-2014
  Reference state energy: -5.383511.  4 valence electrons in orbitals:
    |200>  occupation: 2  eigenvalue: -0.501126
    |210>  occupation: 2  eigenvalue: -0.192448
  lMax: 1  lLocal: 2  QijEcut: 5
  4 projectors sampled on a log grid with 503 points:
    l: 0  eig: -0.501126  rCut: 1.3
    l: 0  eig: 0.000000  rCut: 1.3
    l: 1  eig: -0.192448  rCut: 1.3
    l: 1  eig: 0.000000  rCut: 1.3
  Partial core density with radius 1.1
  Transforming core density to a uniform radial grid of dG=0.02 with 1265 points.
  Transforming local potential to a uniform radial grid of dG=0.02 with 1265 points.
  Transforming nonlocal projectors to a uniform radial grid of dG=0.02 with 432 points.
  Transforming density augmentations to a uniform radial grid of dG=0.02 with 1265 points.
  Transforming atomic orbitals to a uniform radial grid of dG=0.02 with 432 points.
  Core radius for overlap checks: 1.30 bohrs.

Reading pseudopotential file '/home/jfm343/JDFTXDIR/build/pseudopotentials/GBRV/pt_pbesol.uspp':
  Title: Pt.  Created by USPP 7.3.6 on 22-9-15
  Reference state energy: -104.899005.  16 valence electrons in orbitals:
    |510>  occupation: 6  eigenvalue: -2.158847
    |520>  occupation: 9.5  eigenvalue: -0.336311
    |600>  occupation: 0  eigenvalue: -0.320324
    |610>  occupation: 0  eigenvalue: -0.119800
  lMax: 2  lLocal: 3  QijEcut: 5.5
  6 projectors sampled on a log grid with 745 points:
    l: 0  eig: -0.320324  rCut: 2.45
    l: 0  eig: 1.500000  rCut: 2.45
    l: 1  eig: -2.158847  rCut: 1.6
    l: 1  eig: -0.119800  rCut: 1.6
    l: 2  eig: -0.500000  rCut: 1.6
    l: 2  eig: -0.336311  rCut: 1.6
  Partial core density with radius 1.1
  Transforming core density to a uniform radial grid of dG=0.02 with 1265 points.
  Transforming local potential to a uniform radial grid of dG=0.02 with 1265 points.
  Transforming nonlocal projectors to a uniform radial grid of dG=0.02 with 432 points.
  Transforming density augmentations to a uniform radial grid of dG=0.02 with 1265 points.
  Transforming atomic orbitals to a uniform radial grid of dG=0.02 with 432 points.
  Core radius for overlap checks: 2.45 bohrs.

Initialized 3 species with 22 total atoms.

Folded 1 k-points by 4x4x1 to 16 k-points.

---------- Setting up k-points, bands, fillings ----------
Reduced to 6 k-points under symmetry. 
Computing the number of bands and number of electrons
Reading initial fillings from file 100_3-Vacuum.fillings.
nElectrons: 330.000000   nBands: 248   nStates: 6

----- Setting up reduced wavefunction bases (one per k-point) -----
average nbasis = 20861.812 , ideal nbasis = 20851.448

---------- Setting up coulomb interaction ----------
Fluid mode embedding: using embedded box, but periodic Coulomb kernel.
(Fluid response is responsible for (approximate) separation between periodic images.)
Setting up double-sized grid for truncated Coulomb potentials:
R = 
[    10.4793          0          0  ]
[          0    10.4793          0  ]
[          0          0     88.892  ]
unit cell volume = 9761.74
G =
[   0.599581          0          0  ]
[          0   0.599581          0  ]
[          0          0  0.0706834  ]
Chosen fftbox size, S = [  48  48  420  ]
Integer grid location selected as the embedding center:
   Grid: [  0  0  0  ]
   Lattice: [  0  0  0  ]
   Cartesian: [  0  0  0  ]
Constructing Wigner-Seitz cell: 6 faces (6 quadrilaterals, 0 hexagons)
Range-separation parameter for embedded mesh potentials due to point charges: 0.589462 bohrs.

---------- Setting up ewald sum ----------
Optimum gaussian width for ewald sums = 5.093489 bohr.
Real space sum over 845 unit cells with max indices [  6  6  2  ]
Reciprocal space sum over 6897 terms with max indices [  5  5  28  ]

---------- Allocating electronic variables ----------
Initializing wave functions:  reading from '100_3-Vacuum.wfns'
----- createFluidSolver() ----- (Fluid-side solver setup)
   Initializing fluid molecule 'H2O'
     Initializing site 'O'
       Electron density: proportional to exp(-r/0.36935)*erfc((r-0.51523)/0.36823) with norm 6.826
       Charge density: gaussian nuclear width 0.478731 with net site charge 0.826
       Polarizability: cuspless exponential with width 0.32 and norm 3.73
       Hard sphere radius: 2.57003 bohrs
       Positions in reference frame:
         [ +0.000000 +0.000000 +0.000000 ]
     Initializing site 'H'
       Electron density: proportional to exp(-r/0.34641)*erfc((r-0)/0.390882) with norm 0.587
       Charge density: gaussian nuclear width 0.377945 with net site charge -0.413
       Polarizability: cuspless exponential with width 0.39 and norm 3.3
       Positions in reference frame:
         [ +0.000000 -1.441945 +1.122523 ]
         [ +0.000000 +1.441945 +1.122523 ]
     Net charge: 0   dipole magnitude: 0.927204
     Initializing spherical shell mfKernel with radius 2.61727 Bohr
     deltaS corrections:
       site 'O': -7.54299
       site 'H': -6.83917
   Initializing fluid molecule 'Na+'
     Initializing site 'Na'
       Electron density: proportional to exp(-r/0.19682)*erfc((r-0.71491)/0.41314) with norm 8.1383
       Charge density: gaussian nuclear width 0.365347 with net site charge -1
       Hard sphere radius: 1.86327 bohrs
       Positions in reference frame:
         [ +0.000000 +0.000000 +0.000000 ]
     Net charge: -1   dipole magnitude: 0
     Initializing gaussian mfKernel with width: 1.55004 Bohr
     deltaS corrections:
       site 'Na': -22.3555
   Initializing fluid molecule 'ClO4-'
     Initializing site 'Cl'
       Electron density: proportional to exp(-r/0.48793)*erfc((r-0.93371)/0.45657) with norm 6.2308
       Charge density: gaussian nuclear width 0.55117 with net site charge -0.7692
       Hard sphere radius: 4.42196 bohrs
       Positions in reference frame:
         [ +0.000000 +0.000000 +0.000000 ]
     Initializing site 'O'
       Electron density: proportional to exp(-r/0.36013)*erfc((r-0.51636)/0.37371) with norm 6.4423
       Charge density: gaussian nuclear width 0.478731 with net site charge 0.4423
       Positions in reference frame:
         [ +1.705286 +1.705286 +1.705286 ]
         [ +1.705286 -1.705286 -1.705286 ]
         [ -1.705286 +1.705286 -1.705286 ]
         [ -1.705286 -1.705286 +1.705286 ]
     Net charge: 1   dipole magnitude: 0
     Initializing gaussian mfKernel with width: 3.22033 Bohr
     deltaS corrections:
       site 'Cl': -87.0374
       site 'O': 12.0842

Correction to mu due to finite nuclear width = -0.0335418
   Cavity determined by nc: 0.001 and sigma: 0.6
   Effective cavity tension: 9.5e-06 Eh/bohr^2 to account for cavitation and dispersion.
   Nonlinear dielectric with epsBulk = 78.4 and epsInf = 1.77 with density Nmol = 0.0049383 of dipoles pMol = 0.92466 at T = 298 K.
   Nonlinear ions with screening length = 12.843 bohrs and Z = 1 at T = 298 K.


---- Citations for features of the code used in this run ----

   Software package:
      R. Sundararaman, K. Letchworth-Weaver, K.A. Schwarz, D. Gunceler, Y. Ozhabes and T.A. Arias, 'JDFTx: software for joint density-functional theory', SoftwareX 6, 278 (2017)

   gga-PBEsol exchange-correlation functional:
      J.P. Perdew et al., Phys. Rev. Lett. 100, 136406 (2008)

   Pseudopotentials:
      KF Garrity, JW Bennett, KM Rabe and D Vanderbilt, Comput. Mater. Sci. 81, 446 (2014)

   Truncated Coulomb potentials:
      R. Sundararaman and T.A. Arias, Phys. Rev. B 87, 165122 (2013)

   Linear/nonlinear dielectric/ionic fluid model with effective cavity tension:
      D. Gunceler, K. Letchworth-Weaver, R. Sundararaman, K.A. Schwarz and T.A. Arias, Modelling Simul. Mater. Sci. Eng. 21, 074005 (2013)

   Total energy minimization with Auxiliary Hamiltonian:
      C. Freysoldt, S. Boeck, and J. Neugebauer, Phys. Rev. B 79, 241103(R) (2009)

   Grand-canonical (fixed-potential) DFT:
      R. Sundararaman, W. A. Goddard III and T. A. Arias, J. Chem. Phys. 146, 114104 (2017)

This list may not be complete. Please suggest additional citations or
report any other bugs at https://github.com/shankar1729/jdftx/issues

Initialization completed successfully at t[s]:     61.81

Shifting auxilliary hamiltonian by 0.036569 to set nElectrons=330.000000
Initializing state of NonlinearPCM using a similar LinearPCM: 	Linear fluid (dielectric constant: 78.4, screening length: 12.843 Bohr) occupying 0.727938 of unit cell:	Completed after 48 iterations at t[s]:     74.43

-------- Electron <-> Fluid self-consistency loop -----------

---------------------- Fluid Minimization # 1 -----------------------
FluidMinimize: Iter:   0  G: +0.001009258200305  |grad|_K:  1.095e-04  alpha:  1.000e+00
FluidMinimize: 	Step increased G by 8.673617e-19, reducing alpha to 3.582320e-18.
FluidMinimize: 	Step increased G by 4.770490e-18, reducing alpha to 3.582320e-19.
FluidMinimize: 	Step increased G by 2.818926e-18, reducing alpha to 3.582320e-20.
FluidMinimize: 	Step increased G by 1.951564e-18, reducing alpha to 3.582320e-21.
FluidMinimize: 	Step increased G by 2.818926e-18, reducing alpha to 3.582320e-22.
FluidMinimize: 	Step increased G by 1.431147e-17, reducing alpha to 3.582320e-23.
FluidMinimize: 	Step failed to reduce G after 6 attempts. Quitting step.
FluidMinimize: 	Undoing step.
FluidMinimize: 	Step failed along negative gradient direction.
FluidMinimize: Probably at roundoff error limit. (Stopping)

Fluid minimization # 1 changed total free energy by 1.734723e-18 at t[s]:     78.49

-------------------- Electronic Minimization # 1 ---------------------
	FillingsUpdate:  mu: -0.173600000  nElectrons: 330.000000
ElecMinimize: Iter:   0  G: -1744.985762794428865  |grad|_K:  9.529e-05  alpha:  1.000e+00
ElecMinimize: 	Step increased G by 2.516203e-04, reducing alpha to 3.286353e-04.
	FillingsUpdate:  mu: -0.173600000  nElectrons: 330.006676
	SubspaceRotationAdjust: set factor to 0.5
ElecMinimize: Iter:   1  G: -1744.985927891448910  |grad|_K:  7.367e-05  alpha:  3.286e-04  linmin: -2.243e-01  t[s]:    598.49
	FillingsUpdate:  mu: -0.173600000  nElectrons: 330.029447
	SubspaceRotationAdjust: set factor to 0.276
ElecMinimize: Iter:   2  G: -1744.986173950590455  |grad|_K:  7.611e-06  alpha:  8.191e-04  linmin: -2.812e-04  t[s]:    860.10
ElecMinimize: 	Predicted alpha/alphaT>3.000000, increasing alphaT to 2.457443e-03.
ElecMinimize: 	Predicted alpha/alphaT>3.000000, increasing alphaT to 7.372330e-03.
ElecMinimize: 	Predicted alpha/alphaT>3.000000, increasing alphaT to 2.211699e-02.
	FillingsUpdate:  mu: -0.173600000  nElectrons: 330.035004
	SubspaceRotationAdjust: set factor to 0.148
ElecMinimize: Iter:   3  G: -1744.986221494523534  |grad|_K:  8.258e-06  alpha:  2.624e-02  linmin: -4.849e-05  t[s]:   1243.33
	FillingsUpdate:  mu: -0.173600000  nElectrons: 330.030576
	SubspaceRotationAdjust: set factor to 0.0908
	SubspaceRotationAdjust: resetting CG because factor has changed by 0.090801
ElecMinimize: 	State modified externally: resetting search direction.
ElecMinimize: Iter:   4  G: -1744.986240124725782  |grad|_K:  3.623e-06  alpha:  8.727e-03
ElecMinimize: 	Predicted alpha/alphaT>3.000000, increasing alphaT to 2.618002e-02.
	FillingsUpdate:  mu: -0.173600000  nElectrons: 330.036805
	SubspaceRotationAdjust: set factor to 0.0521
ElecMinimize: Iter:   5  G: -1744.986266891008427  |grad|_K:  4.708e-06  alpha:  6.529e-02  linmin: -3.724e-05  t[s]:   1927.30
	FillingsUpdate:  mu: -0.173600000  nElectrons: 330.032890
	SubspaceRotationAdjust: set factor to 0.0349
ElecMinimize: Iter:   6  G: -1744.986293380279676  |grad|_K:  2.087e-06  alpha:  3.824e-02  linmin: -4.102e-06  t[s]:   2185.30
ElecMinimize: 	Predicted alpha/alphaT>3.000000, increasing alphaT to 1.147205e-01.
ElecMinimize: 	Predicted alpha/alphaT>3.000000, increasing alphaT to 3.441615e-01.
	FillingsUpdate:  mu: -0.173600000  nElectrons: 330.035129
	SubspaceRotationAdjust: set factor to 0.0274
ElecMinimize: Iter:   7  G: -1744.986351818568892  |grad|_K:  1.947e-06  alpha:  4.299e-01  linmin:  5.723e-06  t[s]:   2566.50
	FillingsUpdate:  mu: -0.173600000  nElectrons: 330.039359
	SubspaceRotationAdjust: set factor to 0.018
ElecMinimize: Iter:   8  G: -1744.986360369342265  |grad|_K:  1.448e-06  alpha:  7.232e-02  linmin:  9.106e-06  t[s]:   2826.71
ElecMinimize: 	Predicted alpha/alphaT>3.000000, increasing alphaT to 2.169554e-01.
	FillingsUpdate:  mu: -0.173600000  nElectrons: 330.039315
	SubspaceRotationAdjust: set factor to 0.0158
ElecMinimize: Iter:   9  G: -1744.986381013566415  |grad|_K:  1.164e-06  alpha:  3.158e-01  linmin:  1.731e-06  t[s]:   3141.80
	FillingsUpdate:  mu: -0.173600000  nElectrons: 330.035987
	SubspaceRotationAdjust: set factor to 0.0128
ElecMinimize: Iter:  10  G: -1744.986388173083924  |grad|_K:  1.110e-06  alpha:  1.693e-01  linmin:  3.622e-08  t[s]:   3398.06
	FillingsUpdate:  mu: -0.173600000  nElectrons: 330.036629
	SubspaceRotationAdjust: set factor to 0.0196
ElecMinimize: Iter:  11  G: -1744.986400703362733  |grad|_K:  8.886e-07  alpha:  3.256e-01  linmin:  5.402e-07  t[s]:   3657.63
	FillingsUpdate:  mu: -0.173600000  nElectrons: 330.039891
	SubspaceRotationAdjust: set factor to 0.015
ElecMinimize: Iter:  12  G: -1744.986407841877281  |grad|_K:  1.195e-06  alpha:  2.897e-01  linmin: -8.869e-08  t[s]:   3916.82
	FillingsUpdate:  mu: -0.173600000  nElectrons: 330.038328
	SubspaceRotationAdjust: set factor to 0.0142
ElecMinimize: Iter:  13  G: -1744.986419084564204  |grad|_K:  8.388e-07  alpha:  2.522e-01  linmin: -2.823e-07  t[s]:   4173.49
	FillingsUpdate:  mu: -0.173600000  nElectrons: 330.038496
	SubspaceRotationAdjust: set factor to 0.0156
ElecMinimize: Iter:  14  G: -1744.986433127938653  |grad|_K:  9.025e-07  alpha:  6.399e-01  linmin:  4.099e-06  t[s]:   4432.36
	FillingsUpdate:  mu: -0.173600000  nElectrons: 330.041700
	SubspaceRotationAdjust: set factor to 0.0128
ElecMinimize: Iter:  15  G: -1744.986441408049814  |grad|_K:  1.042e-06  alpha:  3.261e-01  linmin:  2.358e-08  t[s]:   4692.39
	FillingsUpdate:  mu: -0.173600000  nElectrons: 330.039788
	SubspaceRotationAdjust: set factor to 0.00981
	SubspaceRotationAdjust: resetting CG because factor has changed by 0.108018
ElecMinimize: 	State modified externally: resetting search direction.
ElecMinimize: Iter:  16  G: -1744.986449746994822  |grad|_K:  7.044e-07  alpha:  2.463e-01
ElecMinimize: Converged (|Delta G|<1.000000e-05 for 2 iters).
Setting wave functions to eigenvectors of Hamiltonian

Electronic minimization # 1 changed total free energy by -6.869526e-04 at t[s]:   5064.02

---------------------- Fluid Minimization # 2 -----------------------
FluidMinimize: Iter:   0  G: -0.006009019270773  |grad|_K:  1.946e-04  alpha:  1.000e+00
FluidMinimize: 	Step increased G by 1.387779e-17, reducing alpha to 1.640738e-31.
FluidMinimize: 	Step increased G by 1.387779e-17, reducing alpha to 1.640738e-32.
FluidMinimize: 	Step increased G by 2.255141e-17, reducing alpha to 1.640738e-33.
FluidMinimize: 	Step increased G by 1.387779e-17, reducing alpha to 1.640738e-34.
FluidMinimize: 	Step increased G by 2.255141e-17, reducing alpha to 1.640738e-35.
FluidMinimize: 	Step increased G by 1.387779e-17, reducing alpha to 1.640738e-36.
FluidMinimize: 	Step failed to reduce G after 6 attempts. Quitting step.
FluidMinimize: 	Undoing step.
FluidMinimize: 	Step failed along negative gradient direction.
FluidMinimize: Probably at roundoff error limit. (Stopping)

Fluid minimization # 2 changed total free energy by 5.204170e-18 at t[s]:   5067.74

-------------------- Electronic Minimization # 2 ---------------------
	FillingsUpdate:  mu: -0.173600000  nElectrons: 330.387999
ElecMinimize: Iter:   0  G: -1744.928078689313452  |grad|_K:  1.145e-04  alpha:  1.000e+00
	FillingsUpdate:  mu: -0.173600000  nElectrons: 330.069494
	SubspaceRotationAdjust: set factor to 0.0092
ElecMinimize: Iter:   1  G: -1744.985603911983389  |grad|_K:  8.745e-06  alpha:  1.343e-01  linmin: -1.071e-01  t[s]:   5436.89
	FillingsUpdate:  mu: -0.173600000  nElectrons: 330.037518
	SubspaceRotationAdjust: set factor to 0.00543
ElecMinimize: Iter:   2  G: -1744.986183080799265  |grad|_K:  4.816e-06  alpha:  2.326e-01  linmin:  3.212e-04  t[s]:   5697.26
	FillingsUpdate:  mu: -0.173600000  nElectrons: 330.042509
	SubspaceRotationAdjust: set factor to 0.00757
ElecMinimize: Iter:   3  G: -1744.986358453761795  |grad|_K:  1.876e-06  alpha:  2.424e-01  linmin: -8.180e-05  t[s]:   5958.08
	FillingsUpdate:  mu: -0.173600000  nElectrons: 330.044256
	SubspaceRotationAdjust: set factor to 0.00784
ElecMinimize: Iter:   4  G: -1744.986402055375038  |grad|_K:  1.295e-06  alpha:  3.969e-01  linmin: -4.807e-05  t[s]:   6218.82
	FillingsUpdate:  mu: -0.173600000  nElectrons: 330.040461
	SubspaceRotationAdjust: set factor to 0.00776
ElecMinimize: Iter:   5  G: -1744.986423562798791  |grad|_K:  1.099e-06  alpha:  4.111e-01  linmin:  3.821e-05  t[s]:   6478.93
	FillingsUpdate:  mu: -0.173600000  nElectrons: 330.042123
	SubspaceRotationAdjust: set factor to 0.00894
ElecMinimize: Iter:   6  G: -1744.986441780586802  |grad|_K:  9.307e-07  alpha:  4.837e-01  linmin: -3.009e-05  t[s]:   6736.97
	FillingsUpdate:  mu: -0.173600000  nElectrons: 330.043123
	SubspaceRotationAdjust: set factor to 0.0105
ElecMinimize: Iter:   7  G: -1744.986454776822484  |grad|_K:  7.287e-07  alpha:  4.806e-01  linmin: -1.414e-05  t[s]:   6999.19
	FillingsUpdate:  mu: -0.173600000  nElectrons: 330.041309
	SubspaceRotationAdjust: set factor to 0.0094
ElecMinimize: Iter:   8  G: -1744.986461305787543  |grad|_K:  6.976e-07  alpha:  3.938e-01  linmin:  2.745e-06  t[s]:   7259.50
	FillingsUpdate:  mu: -0.173600000  nElectrons: 330.043437
	SubspaceRotationAdjust: set factor to 0.00936
ElecMinimize: Iter:   9  G: -1744.986466850989700  |grad|_K:  5.059e-07  alpha:  3.652e-01  linmin: -8.789e-06  t[s]:   7522.43
ElecMinimize: Converged (|Delta G|<6.869526e-06 for 2 iters).
Setting wave functions to eigenvectors of Hamiltonian

Electronic minimization # 2 changed total free energy by -1.710399e-05 at t[s]:   7534.24

---------------------- Fluid Minimization # 3 -----------------------
FluidMinimize: Iter:   0  G: -0.006732277118990  |grad|_K:  2.115e-04  alpha:  1.000e+00
FluidMinimize: 	Step increased G by 2.602085e-17, reducing alpha to 4.106487e-34.
FluidMinimize: 	Step increased G by 2.602085e-17, reducing alpha to 4.106487e-35.
FluidMinimize: 	Step increased G by 1.734723e-18, reducing alpha to 4.106487e-36.
FluidMinimize: 	Step increased G by 1.561251e-17, reducing alpha to 4.106487e-37.
FluidMinimize: 	Step increased G by 2.602085e-17, reducing alpha to 4.106487e-38.
FluidMinimize: 	Step increased G by 1.561251e-17, reducing alpha to 4.106487e-39.
FluidMinimize: 	Step failed to reduce G after 6 attempts. Quitting step.
FluidMinimize: 	Undoing step.
FluidMinimize: 	Step failed along negative gradient direction.
FluidMinimize: Probably at roundoff error limit. (Stopping)

Fluid minimization # 3 changed total free energy by 2.255141e-17 at t[s]:   7537.56

-------------------- Electronic Minimization # 3 ---------------------
	FillingsUpdate:  mu: -0.173600000  nElectrons: 329.766144
ElecMinimize: Iter:   0  G: -1744.936806732174091  |grad|_K:  1.003e-04  alpha:  1.000e+00
	FillingsUpdate:  mu: -0.173600000  nElectrons: 330.067959
	SubspaceRotationAdjust: set factor to 0.00373
ElecMinimize: Iter:   1  G: -1744.982794938541701  |grad|_K:  1.297e-05  alpha:  1.534e-01  linmin:  6.765e-02  t[s]:   7910.55
	FillingsUpdate:  mu: -0.173600000  nElectrons: 330.039787
	SubspaceRotationAdjust: set factor to 0.0039
ElecMinimize: Iter:   2  G: -1744.984567183713580  |grad|_K:  5.561e-06  alpha:  3.524e-01  linmin:  9.221e-04  t[s]:   8165.80
	FillingsUpdate:  mu: -0.173600000  nElectrons: 330.052937
	SubspaceRotationAdjust: set factor to 0.00472
ElecMinimize: Iter:   3  G: -1744.985124219399040  |grad|_K:  3.778e-06  alpha:  5.783e-01  linmin: -1.484e-04  t[s]:   8425.34
	FillingsUpdate:  mu: -0.173600000  nElectrons: 330.055707
	SubspaceRotationAdjust: set factor to 0.00571
ElecMinimize: Iter:   4  G: -1744.985402027121836  |grad|_K:  3.615e-06  alpha:  6.233e-01  linmin:  1.858e-06  t[s]:   8687.42
	FillingsUpdate:  mu: -0.173600000  nElectrons: 330.047634
	SubspaceRotationAdjust: set factor to 0.00624
ElecMinimize: Iter:   5  G: -1744.985727138074708  |grad|_K:  3.326e-06  alpha:  7.972e-01  linmin:  1.530e-04  t[s]:   8940.68
	FillingsUpdate:  mu: -0.173600000  nElectrons: 330.051173
	SubspaceRotationAdjust: set factor to 0.00667
ElecMinimize: Iter:   6  G: -1744.985950610197960  |grad|_K:  2.747e-06  alpha:  6.480e-01  linmin: -2.688e-05  t[s]:   9197.99
	FillingsUpdate:  mu: -0.173600000  nElectrons: 330.045409
	SubspaceRotationAdjust: set factor to 0.00762
ElecMinimize: Iter:   7  G: -1744.986083985377718  |grad|_K:  2.361e-06  alpha:  5.663e-01  linmin:  4.794e-05  t[s]:   9454.85
	FillingsUpdate:  mu: -0.173600000  nElectrons: 330.045883
	SubspaceRotationAdjust: set factor to 0.00948
ElecMinimize: Iter:   8  G: -1744.986194051802386  |grad|_K:  2.341e-06  alpha:  6.331e-01  linmin: -2.342e-05  t[s]:   9712.82
	FillingsUpdate:  mu: -0.173600000  nElectrons: 330.045095
	SubspaceRotationAdjust: set factor to 0.0113
ElecMinimize: Iter:   9  G: -1744.986305757099444  |grad|_K:  2.175e-06  alpha:  6.528e-01  linmin: -2.040e-05  t[s]:   9973.44
	FillingsUpdate:  mu: -0.173600000  nElectrons: 330.038179
	SubspaceRotationAdjust: set factor to 0.0104
ElecMinimize: Iter:  10  G: -1744.986388762269598  |grad|_K:  2.091e-06  alpha:  5.620e-01  linmin:  6.979e-05  t[s]:  10236.90
	FillingsUpdate:  mu: -0.173600000  nElectrons: 330.044039
	SubspaceRotationAdjust: set factor to 0.00652
ElecMinimize: Iter:  11  G: -1744.986428841954648  |grad|_K:  1.579e-06  alpha:  2.945e-01  linmin:  6.558e-05  t[s]:  10497.34
	FillingsUpdate:  mu: -0.173600000  nElectrons: 330.040499
	SubspaceRotationAdjust: set factor to 0.00591
ElecMinimize: Iter:  12  G: -1744.986456872067265  |grad|_K:  8.692e-07  alpha:  3.603e-01  linmin:  4.756e-05  t[s]:  10758.00
	FillingsUpdate:  mu: -0.173600000  nElectrons: 330.039919
	SubspaceRotationAdjust: set factor to 0.00668
ElecMinimize: Iter:  13  G: -1744.986466770466450  |grad|_K:  5.595e-07  alpha:  4.198e-01  linmin: -4.211e-05  t[s]:  11016.54
	FillingsUpdate:  mu: -0.173600000  nElectrons: 330.041052
	SubspaceRotationAdjust: set factor to 0.00621
ElecMinimize: Iter:  14  G: -1744.986470638634728  |grad|_K:  3.346e-07  alpha:  3.959e-01  linmin: -1.908e-05  t[s]:  11273.62
	FillingsUpdate:  mu: -0.173600000  nElectrons: 330.040497
	SubspaceRotationAdjust: set factor to 0.00752
ElecMinimize: Iter:  15  G: -1744.986472387081449  |grad|_K:  2.411e-07  alpha:  4.996e-01  linmin: -8.319e-05  t[s]:  11530.04
	FillingsUpdate:  mu: -0.173600000  nElectrons: 330.040742
	SubspaceRotationAdjust: set factor to 0.0097
ElecMinimize: Iter:  16  G: -1744.986473536680705  |grad|_K:  2.413e-07  alpha:  6.336e-01  linmin:  3.745e-05  t[s]:  11791.36
	FillingsUpdate:  mu: -0.173600000  nElectrons: 330.041167
	SubspaceRotationAdjust: set factor to 0.0115
ElecMinimize: Iter:  17  G: -1744.986474811825246  |grad|_K:  3.013e-07  alpha:  7.033e-01  linmin:  2.322e-05  t[s]:  12053.01
	FillingsUpdate:  mu: -0.173600000  nElectrons: 330.040405
	SubspaceRotationAdjust: set factor to 0.011
ElecMinimize: Iter:  18  G: -1744.986476615810261  |grad|_K:  4.015e-07  alpha:  6.366e-01  linmin: -8.620e-06  t[s]:  12308.21
	FillingsUpdate:  mu: -0.173600000  nElectrons: 330.042023
	SubspaceRotationAdjust: set factor to 0.00883
ElecMinimize: Iter:  19  G: -1744.986478878804746  |grad|_K:  4.222e-07  alpha:  4.494e-01  linmin: -6.149e-06  t[s]:  12566.12
	FillingsUpdate:  mu: -0.173600000  nElectrons: 330.041655
	SubspaceRotationAdjust: set factor to 0.00845
ElecMinimize: Iter:  20  G: -1744.986481667584712  |grad|_K:  3.763e-07  alpha:  5.011e-01  linmin:  2.642e-06  t[s]:  12823.74
	FillingsUpdate:  mu: -0.173600000  nElectrons: 330.041990
	SubspaceRotationAdjust: set factor to 0.0094
ElecMinimize: Iter:  21  G: -1744.986484047997010  |grad|_K:  2.955e-07  alpha:  5.383e-01  linmin: -4.918e-06  t[s]:  13082.39
	FillingsUpdate:  mu: -0.173600000  nElectrons: 330.042521
	SubspaceRotationAdjust: set factor to 0.0103
ElecMinimize: Iter:  22  G: -1744.986485371412300  |grad|_K:  2.231e-07  alpha:  4.859e-01  linmin: -3.198e-05  t[s]:  13339.54
	FillingsUpdate:  mu: -0.173600000  nElectrons: 330.042055
	SubspaceRotationAdjust: set factor to 0.00924
ElecMinimize: Iter:  23  G: -1744.986486011956913  |grad|_K:  1.951e-07  alpha:  4.118e-01  linmin:  4.520e-05  t[s]:  13601.14
	FillingsUpdate:  mu: -0.173600000  nElectrons: 330.042589
	SubspaceRotationAdjust: set factor to 0.00971
ElecMinimize: Iter:  24  G: -1744.986486485243631  |grad|_K:  1.646e-07  alpha:  3.981e-01  linmin: -2.773e-05  t[s]:  13860.33
	FillingsUpdate:  mu: -0.173600000  nElectrons: 330.042306
	SubspaceRotationAdjust: set factor to 0.0116
ElecMinimize: Iter:  25  G: -1744.986486966703296  |grad|_K:  1.616e-07  alpha:  5.653e-01  linmin: -9.093e-05  t[s]:  14118.00
	FillingsUpdate:  mu: -0.173600000  nElectrons: 330.042320
	SubspaceRotationAdjust: set factor to 0.0139
ElecMinimize: Iter:  26  G: -1744.986487483173278  |grad|_K:  1.756e-07  alpha:  6.303e-01  linmin:  9.267e-06  t[s]:  14374.41
	FillingsUpdate:  mu: -0.173600000  nElectrons: 330.042557
	SubspaceRotationAdjust: set factor to 0.0148
ElecMinimize: Iter:  27  G: -1744.986488090892635  |grad|_K:  1.951e-07  alpha:  6.322e-01  linmin: -1.541e-06  t[s]:  14630.78
	FillingsUpdate:  mu: -0.173600000  nElectrons: 330.041924
	SubspaceRotationAdjust: set factor to 0.0117
ElecMinimize: Iter:  28  G: -1744.986488474633688  |grad|_K:  2.085e-07  alpha:  3.227e-01  linmin: -8.674e-07  t[s]:  14885.41
	FillingsUpdate:  mu: -0.173600000  nElectrons: 330.042371
	SubspaceRotationAdjust: set factor to 0.00948
ElecMinimize: Iter:  29  G: -1744.986488847611326  |grad|_K:  1.407e-07  alpha:  2.758e-01  linmin:  5.771e-06  t[s]:  15139.75
	FillingsUpdate:  mu: -0.173600000  nElectrons: 330.042290
	SubspaceRotationAdjust: set factor to 0.0117
ElecMinimize: Iter:  30  G: -1744.986489136768114  |grad|_K:  1.043e-07  alpha:  4.716e-01  linmin:  1.638e-04  t[s]:  15399.12
	FillingsUpdate:  mu: -0.173600000  nElectrons: 330.042164
	SubspaceRotationAdjust: set factor to 0.0137
ElecMinimize: Iter:  31  G: -1744.986489282987804  |grad|_K:  8.152e-08  alpha:  4.338e-01  linmin: -4.420e-05  t[s]:  15657.62
	FillingsUpdate:  mu: -0.173600000  nElectrons: 330.042396
	SubspaceRotationAdjust: set factor to 0.0101
ElecMinimize: Iter:  32  G: -1744.986489360637279  |grad|_K:  8.264e-08  alpha:  3.662e-01  linmin: -7.336e-05  t[s]:  15915.77
ElecMinimize: Converged (|Delta G|<1.710399e-07 for 2 iters).
Setting wave functions to eigenvectors of Hamiltonian

Electronic minimization # 3 changed total free energy by -2.250965e-05 at t[s]:  15927.86

---------------------- Fluid Minimization # 4 -----------------------
FluidMinimize: Iter:   0  G: -0.006524311443951  |grad|_K:  2.053e-04  alpha:  1.000e+00
FluidMinimize: Iter:   1  G: -0.006524311443951  |grad|_K:  2.053e-04  alpha:  5.755e-32  linmin: -1.494e-01  cgtest:  1.000e+00  t[s]:  15928.84
FluidMinimize: Iter:   2  G: -0.006524311443951  |grad|_K:  2.053e-04  alpha:  5.755e-32  linmin: -1.494e-01  cgtest:  1.000e+00  t[s]:  15929.47
FluidMinimize: Encountered beta<0, resetting CG.
FluidMinimize: Iter:   3  G: -0.006524311443951  |grad|_K:  2.053e-04  alpha:  5.755e-32  linmin: -1.494e-01  cgtest:  1.000e+00  t[s]:  15930.09
FluidMinimize: Encountered beta<0, resetting CG.
FluidMinimize: 	Step increased G by 2.255141e-17, reducing alpha to 5.754684e-33.
FluidMinimize: 	Step increased G by 1.561251e-17, reducing alpha to 5.754684e-34.
FluidMinimize: 	Step increased G by 2.255141e-17, reducing alpha to 5.754684e-35.
FluidMinimize: 	Step increased G by 2.255141e-17, reducing alpha to 5.754684e-36.
FluidMinimize: 	Step increased G by 2.255141e-17, reducing alpha to 5.754684e-37.
FluidMinimize: 	Step increased G by 2.255141e-17, reducing alpha to 5.754684e-38.
FluidMinimize: 	Step failed to reduce G after 6 attempts. Quitting step.
FluidMinimize: 	Undoing step.
FluidMinimize: 	Step failed along negative gradient direction.
FluidMinimize: Probably at roundoff error limit. (Stopping)

Fluid minimization # 4 changed total free energy by 8.673617e-18 at t[s]:  15933.01

-------------------- Electronic Minimization # 4 ---------------------
	FillingsUpdate:  mu: -0.173600000  nElectrons: 329.950225
ElecMinimize: Iter:   0  G: -1744.981890544283942  |grad|_K:  3.282e-05  alpha:  1.000e+00
	FillingsUpdate:  mu: -0.173600000  nElectrons: 330.044253
	SubspaceRotationAdjust: set factor to 0.00403
ElecMinimize: Iter:   1  G: -1744.986417607122348  |grad|_K:  1.848e-06  alpha:  1.368e-01  linmin:  4.123e-02  t[s]:  16296.61
	FillingsUpdate:  mu: -0.173600000  nElectrons: 330.042888
	SubspaceRotationAdjust: set factor to 0.00436
ElecMinimize: Iter:   2  G: -1744.986450550515656  |grad|_K:  7.042e-07  alpha:  3.137e-01  linmin:  7.517e-05  t[s]:  16551.45
	FillingsUpdate:  mu: -0.173600000  nElectrons: 330.045071
	SubspaceRotationAdjust: set factor to 0.00549
ElecMinimize: Iter:   3  G: -1744.986458560991878  |grad|_K:  4.479e-07  alpha:  5.176e-01  linmin: -1.358e-04  t[s]:  16810.73
	FillingsUpdate:  mu: -0.173600000  nElectrons: 330.045453
	SubspaceRotationAdjust: set factor to 0.00692
ElecMinimize: Iter:   4  G: -1744.986462692175337  |grad|_K:  4.752e-07  alpha:  6.594e-01  linmin:  2.988e-05  t[s]:  17075.90
	FillingsUpdate:  mu: -0.173600000  nElectrons: 330.043344
	SubspaceRotationAdjust: set factor to 0.00682
ElecMinimize: Iter:   5  G: -1744.986468990074172  |grad|_K:  5.492e-07  alpha:  8.936e-01  linmin: -2.669e-06  t[s]:  17335.49
	FillingsUpdate:  mu: -0.173600000  nElectrons: 330.044682
	SubspaceRotationAdjust: set factor to 0.00591
ElecMinimize: Iter:   6  G: -1744.986475324376670  |grad|_K:  5.553e-07  alpha:  6.729e-01  linmin: -8.235e-06  t[s]:  17594.32
	FillingsUpdate:  mu: -0.173600000  nElectrons: 330.043442
	SubspaceRotationAdjust: set factor to 0.00649
ElecMinimize: Iter:   7  G: -1744.986480662131498  |grad|_K:  4.400e-07  alpha:  5.544e-01  linmin:  1.488e-05  t[s]:  17852.75
	FillingsUpdate:  mu: -0.173600000  nElectrons: 330.042801
	SubspaceRotationAdjust: set factor to 0.008
ElecMinimize: Iter:   8  G: -1744.986484203363034  |grad|_K:  3.271e-07  alpha:  5.862e-01  linmin:  1.795e-05  t[s]:  18109.89
	FillingsUpdate:  mu: -0.173600000  nElectrons: 330.043181
	SubspaceRotationAdjust: set factor to 0.00893
ElecMinimize: Iter:   9  G: -1744.986486083120099  |grad|_K:  2.727e-07  alpha:  5.630e-01  linmin: -1.505e-05  t[s]:  18370.64
	FillingsUpdate:  mu: -0.173600000  nElectrons: 330.042331
	SubspaceRotationAdjust: set factor to 0.00814
ElecMinimize: Iter:  10  G: -1744.986487300949420  |grad|_K:  2.388e-07  alpha:  5.240e-01  linmin: -2.663e-05  t[s]:  18633.75
	FillingsUpdate:  mu: -0.173600000  nElectrons: 330.042974
	SubspaceRotationAdjust: set factor to 0.00623
ElecMinimize: Iter:  11  G: -1744.986488020145316  |grad|_K:  1.763e-07  alpha:  4.039e-01  linmin: -6.713e-05  t[s]:  18894.93
	FillingsUpdate:  mu: -0.173600000  nElectrons: 330.042559
	SubspaceRotationAdjust: set factor to 0.00627
ElecMinimize: Iter:  12  G: -1744.986488536249226  |grad|_K:  1.142e-07  alpha:  5.325e-01  linmin: -7.574e-05  t[s]:  19153.10
	FillingsUpdate:  mu: -0.173600000  nElectrons: 330.042572
	SubspaceRotationAdjust: set factor to 0.00771
ElecMinimize: Iter:  13  G: -1744.986488761782539  |grad|_K:  8.869e-08  alpha:  5.567e-01  linmin:  4.232e-04  t[s]:  19412.48
	FillingsUpdate:  mu: -0.173600000  nElectrons: 330.042688
	SubspaceRotationAdjust: set factor to 0.00901
ElecMinimize: Iter:  14  G: -1744.986488886012012  |grad|_K:  7.448e-08  alpha:  5.049e-01  linmin:  8.743e-05  t[s]:  19675.79
	FillingsUpdate:  mu: -0.173600000  nElectrons: 330.042528
	SubspaceRotationAdjust: set factor to 0.0103
ElecMinimize: Iter:  15  G: -1744.986489010747846  |grad|_K:  8.744e-08  alpha:  7.253e-01  linmin: -1.948e-04  t[s]:  19929.10
ElecMinimize: Converged (|Delta G|<2.250965e-07 for 2 iters).
Setting wave functions to eigenvectors of Hamiltonian

Electronic minimization # 4 changed total free energy by 3.498894e-07 at t[s]:  19939.91

Fluid<-->Electron self-consistency loop converged to 1.000000e-05 hartrees after 4 minimization pairs at t[s]:  19939.91.

# Ionic positions in lattice coordinates:
ion O   0.500000000000000   0.500000000000000   0.297725061116489 1
ion C   0.500000000000000   0.500000000000000   0.248650602189231 1
ion Pt   0.000000000000000   0.000000000000000  -0.166700000000000 0
ion Pt   0.500000000000000   0.500000000000000  -0.166700000000000 0
ion Pt   0.000000000000000   0.500000000000000  -0.166700000000000 0
ion Pt   0.500000000000000   0.000000000000000  -0.166700000000000 0
ion Pt   0.750000000000000   0.250000000000000  -0.083300000000000 0
ion Pt   0.250000000000000   0.750000000000000  -0.083300000000000 0
ion Pt   0.250000000000000   0.250000000000000  -0.083300000000000 0
ion Pt   0.750000000000000   0.750000000000000  -0.083300000000000 0
ion Pt   0.500000000000000   0.000000000000000   0.000248945478794 1
ion Pt   0.000000000000000   0.000000000000000  -0.001623265635983 1
ion Pt   0.000000000000000   0.500000000000000   0.000248945478794 1
ion Pt   0.500000000000000   0.500000000000000  -0.000005850471840 1
ion Pt   0.748978989447437   0.251021010552563   0.082697169826353 1
ion Pt   0.251021010552563   0.748978989447437   0.082697169826353 1
ion Pt   0.251021010552563   0.251021010552563   0.082697169826353 1
ion Pt   0.748978989447437   0.748978989447437   0.082697169826353 1
ion Pt   0.000000000000000   0.000000000000000   0.164024439230836 1
ion Pt   0.000000000000000   0.500000000000000   0.162380226861314 1
ion Pt   0.500000000000000   0.000000000000000   0.162380226861314 1
ion Pt   0.500000000000000   0.500000000000000   0.171335121304972 1


# Forces in Lattice coordinates:
force O   0.000000000000000   0.000000000000000   0.253062464972274 1
force C   0.000000000000000   0.000000000000000  -0.083111689321212 1
force Pt   0.000000000000000   0.000000000000000   0.314674956940817 0
force Pt   0.000000000000000   0.000000000000000   0.363865654357296 0
force Pt   0.000000000000000   0.000000000000000   0.320189172081072 0
force Pt   0.000000000000000   0.000000000000000   0.320189172081073 0
force Pt  -0.010889868701860   0.010889868701860  -0.335927425386480 0
force Pt   0.010889868701860  -0.010889868701860  -0.335927425385570 0
force Pt   0.010889868701860   0.010889868701860  -0.335927425386480 0
force Pt  -0.010889868701860  -0.010889868701860  -0.335927425387389 0
force Pt   0.000000000000000   0.000000000000000  -0.098888039882103 1
force Pt   0.000000000000000  -0.000000000000000   0.040467408755680 1
force Pt   0.000000000000000   0.000000000000000  -0.098888039882103 1
force Pt   0.000000000000000   0.000000000000000  -0.104456877974067 1
force Pt  -0.000959299025591   0.000959299025591   0.018869558916231 1
force Pt   0.000959299025591  -0.000959299025591   0.018869558916686 1
force Pt   0.000959299025591   0.000959299025591   0.018869558916231 1
force Pt  -0.000959299025591  -0.000959299025591   0.018869558916231 1
force Pt   0.000000000000000  -0.000000000000000  -0.050163639106339 1
force Pt   0.000000000000000   0.000000000000000   0.061991813292159 1
force Pt   0.000000000000000   0.000000000000000   0.061991813292159 1
force Pt   0.000000000000000  -0.000000000000000  -0.055309105913913 1

# Energy components:
   A_diel =       -0.0065525056293087
   Eewald =    26829.2553613435266016
       EH =    28423.1416195103738573
     Eloc =   -57370.1265477453707717
      Enl =      -17.9637370265926606
      Exc =     -571.4977512651503275
 Exc_core =      324.9288202902804983
       KE =      580.2185468114823834
  MuShift =       -0.0014264668776892
-------------------------------------
     Etot =    -1802.0516670539591360
       TS =        0.2302048247430513
-------------------------------------
        F =    -1802.2818718787020771
      muN =      -57.2953828679541175
-------------------------------------
        G =    -1744.9864890107478459

IonicMinimize: Iter:   0  G: -1744.986489010747846  |grad|_K:  1.192e-03  t[s]:  19972.03
IonicMinimize: None of the convergence criteria satisfied after 0 iterations.

#--- Lowdin population analysis ---
# oxidation-state O -0.121
# oxidation-state C +0.517
# oxidation-state Pt +0.016 +0.017 +0.016 +0.016 -0.008 -0.008 -0.008 -0.008 +0.014 +0.010 +0.014 +0.015 -0.022 -0.022 -0.022 -0.022 +0.028 -0.005 -0.005 -0.135


Dumping '100_3-Solvated.ionpos' ... done
Dumping '100_3-Solvated.n' ... done
Dumping '100_3-Solvated.eigStats' ... 
	eMin: -2.148215 at state 0 ( [ +0.000000 +0.000000 +0.000000 ] spin 0 )
	HOMO: -0.173922 at state 2 ( [ +0.000000 +0.500000 +0.000000 ] spin 0 )
	mu  : -0.173600
	LUMO: -0.172837 at state 1 ( [ +0.000000 +0.250000 +0.000000 ] spin 0 )
	eMax: +0.351411 at state 2 ( [ +0.000000 +0.500000 +0.000000 ] spin 0 )
	HOMO-LUMO gap: +0.001084
	Optical gap  : +0.001321 at state 1 ( [ +0.000000 +0.250000 +0.000000 ] spin 0 )
Dumping '100_3-Solvated.Ecomponents' ... done
End date and time: Thu Apr 25 21:11:37 2019  (Duration: 0-5:33:28.47)
Done!
