--------------------------------------------------------------------------
Initialization of PSM library failed.

  Error: PSM is in the finalized state
--------------------------------------------------------------------------
[node2003][[31918,1],0][btl_openib.c:880:mca_btl_openib_add_procs] could not prepare openib device for use
--------------------------------------------------------------------------
The OpenFabrics (openib) BTL failed to initialize while trying to
allocate some locked memory.  This typically can indicate that the
memlock limits are set too low.  For most HPC installations, the
memlock limits should be set to "unlimited".  The failure occured
here:

  Local host:    node2003
  OMPI source:   btl_openib.c:753
  Function:      ompi_free_list_init_ex_new()
  Device:        qib0
  Memlock limit: 65536

You may need to consult with your system administrator to get this
problem fixed.  This FAQ entry on the Open MPI web site may also be
helpful:

    http://www.open-mpi.org/faq/?category=openfabrics#ib-locked-pages
--------------------------------------------------------------------------

*************** JDFTx 1.4.2 (git hash 74b6e54) ***************

Start date and time: Wed Apr 24 12:38:42 2019
Executable /home/jfm343/JDFTXDIR/build/jdftx with command-line: -i Vacuum.in
Running on hosts (process indices):  node2003.physics.cornell.edu (0)
Divided in process groups (process indices):  0 (0)
Resource initialization completed at t[s]:      0.00
Run totals: 1 processes, 12 threads, 0 GPUs


Input parsed successfully to the following command list (including defaults):

basis kpoint-dependent
coords-type Lattice
core-overlap-check vector
coulomb-interaction Slab 001
coulomb-truncation-embed 0 0 0
davidson-band-ratio 1.1
dump End State IonicPositions ElecDensity EigStats Ecomponents
dump-name 100_3-Vacuum.$VAR
elec-cutoff 20 100
elec-eigen-algo Davidson
elec-ex-corr gga-PBEsol
elec-smearing Fermi 0.01
electronic-minimize  \
	dirUpdateScheme      FletcherReeves \
	linminMethod         DirUpdateRecommended \
	nIterations          200 \
	history              15 \
	knormThreshold       0 \
	energyDiffThreshold  1e-08 \
	nEnergyDiff          2 \
	alphaTstart          1 \
	alphaTmin            1e-10 \
	updateTestStepSize   yes \
	alphaTreduceFactor   0.1 \
	alphaTincreaseFactor 3 \
	nAlphaAdjustMax      3 \
	wolfeEnergy          0.0001 \
	wolfeGradient        0.9 \
	fdTest               no
exchange-regularization WignerSeitzTruncated
fluid None
fluid-ex-corr lda-TF lda-PZ
fluid-gummel-loop 10 1.000000e-05
fluid-minimize  \
	dirUpdateScheme      PolakRibiere \
	linminMethod         DirUpdateRecommended \
	nIterations          100 \
	history              15 \
	knormThreshold       0 \
	energyDiffThreshold  0 \
	nEnergyDiff          2 \
	alphaTstart          1 \
	alphaTmin            1e-10 \
	updateTestStepSize   yes \
	alphaTreduceFactor   0.1 \
	alphaTincreaseFactor 3 \
	nAlphaAdjustMax      3 \
	wolfeEnergy          0.0001 \
	wolfeGradient        0.9 \
	fdTest               no
fluid-solvent H2O 55.338 ScalarEOS \
	epsBulk 78.4 \
	pMol 0.92466 \
	epsInf 1.77 \
	Pvap 1.06736e-10 \
	sigmaBulk 4.62e-05 \
	Rvdw 2.61727 \
	Res 1.42 \
	tauNuc 343133 \
	omegaEl 0.55124 \
	gammaEl 0.257245
forces-output-coords Positions
ion O   0.500000000000000   0.500000000000000   0.293619000000000 1
ion C   0.500000000000000   0.500000000000000   0.246000000000000 1
ion Pt   0.000000000000000   0.000000000000000  -0.166700000000000 0
ion Pt   0.500000000000000   0.500000000000000  -0.166700000000000 0
ion Pt   0.000000000000000   0.500000000000000  -0.166700000000000 0
ion Pt   0.500000000000000   0.000000000000000  -0.166700000000000 0
ion Pt   0.750000000000000   0.250000000000000  -0.083300000000000 0
ion Pt   0.250000000000000   0.750000000000000  -0.083300000000000 0
ion Pt   0.250000000000000   0.250000000000000  -0.083300000000000 0
ion Pt   0.750000000000000   0.750000000000000  -0.083300000000000 0
ion Pt   0.500000000000000   0.000000000000000   0.000000000000000 1
ion Pt   0.000000000000000   0.000000000000000   0.000000000000000 1
ion Pt   0.000000000000000   0.500000000000000   0.000000000000000 1
ion Pt   0.500000000000000   0.500000000000000   0.000000000000000 1
ion Pt   0.750000000000000   0.250000000000000   0.083300000000000 1
ion Pt   0.250000000000000   0.750000000000000   0.083300000000000 1
ion Pt   0.250000000000000   0.250000000000000   0.083300000000000 1
ion Pt   0.750000000000000   0.750000000000000   0.083300000000000 1
ion Pt   0.000000000000000   0.000000000000000   0.166700000000000 1
ion Pt   0.000000000000000   0.500000000000000   0.166700000000000 1
ion Pt   0.500000000000000   0.000000000000000   0.166700000000000 1
ion Pt   0.500000000000000   0.500000000000000   0.166700000000000 1
ion-species GBRV/$ID_pbesol.uspp
ion-width 0
ionic-minimize  \
	dirUpdateScheme      L-BFGS \
	linminMethod         DirUpdateRecommended \
	nIterations          5 \
	history              15 \
	knormThreshold       0.0001 \
	energyDiffThreshold  1e-06 \
	nEnergyDiff          2 \
	alphaTstart          1 \
	alphaTmin            1e-10 \
	updateTestStepSize   yes \
	alphaTreduceFactor   0.1 \
	alphaTincreaseFactor 3 \
	nAlphaAdjustMax      3 \
	wolfeEnergy          0.0001 \
	wolfeGradient        0.9 \
	fdTest               no
kpoint   0.000000000000   0.000000000000   0.000000000000  1.00000000000000
kpoint-folding 4 4 1 
latt-move-scale 1 1 1
latt-scale 1 1 1 
lattice Tetragonal 10.4793 44.446
lattice-minimize  \
	dirUpdateScheme      L-BFGS \
	linminMethod         DirUpdateRecommended \
	nIterations          0 \
	history              15 \
	knormThreshold       0 \
	energyDiffThreshold  1e-06 \
	nEnergyDiff          2 \
	alphaTstart          1 \
	alphaTmin            1e-10 \
	updateTestStepSize   yes \
	alphaTreduceFactor   0.1 \
	alphaTincreaseFactor 3 \
	nAlphaAdjustMax      3 \
	wolfeEnergy          0.0001 \
	wolfeGradient        0.9 \
	fdTest               no
lcao-params -1 1e-06 0.01
pcm-variant GLSSA13
spintype no-spin
subspace-rotation-factor 1 yes
symmetries automatic
symmetry-threshold 0.0001



---------- Setting up symmetries ----------

Found 16 point-group symmetries of the bravais lattice
Found 8 space-group symmetries with basis
Applied RMS atom displacement 0 bohrs to make symmetries exact.

---------- Initializing the Grid ----------
R = 
[    10.4793          0          0  ]
[          0    10.4793          0  ]
[          0          0     44.446  ]
unit cell volume = 4880.87
G =
[   0.599581          0          0  ]
[          0   0.599581          0  ]
[          0          0   0.141367  ]
Minimum fftbox size, Smin = [  48  48  204  ]
Chosen fftbox size, S = [  48  48  210  ]

---------- Initializing tighter grid for wavefunction operations ----------
R = 
[    10.4793          0          0  ]
[          0    10.4793          0  ]
[          0          0     44.446  ]
unit cell volume = 4880.87
G =
[   0.599581          0          0  ]
[          0   0.599581          0  ]
[          0          0   0.141367  ]
Minimum fftbox size, Smin = [  44  44  180  ]
Chosen fftbox size, S = [  48  48  180  ]

---------- Exchange Correlation functional ----------
Initalized PBEsol GGA exchange.
Initalized PBEsol GGA correlation.

---------- Setting up pseudopotentials ----------
Width of ionic core gaussian charges (only for fluid interactions / plotting) set to 0

Reading pseudopotential file '/home/jfm343/JDFTXDIR/build/pseudopotentials/GBRV/o_pbesol.uspp':
  Title: O.  Created by USPP 7.3.6 on 3-2-2014
  Reference state energy: -15.849885.  6 valence electrons in orbitals:
    |200>  occupation: 2  eigenvalue: -0.873214
    |210>  occupation: 4  eigenvalue: -0.330058
  lMax: 2  lLocal: 2  QijEcut: 6
  5 projectors sampled on a log grid with 511 points:
    l: 0  eig: -0.873214  rCut: 1.25
    l: 0  eig: 0.000000  rCut: 1.25
    l: 1  eig: -0.330058  rCut: 1.25
    l: 1  eig: 0.000000  rCut: 1.25
    l: 2  eig: 1.000000  rCut: 1.25
  Partial core density with radius 0.7
  Transforming core density to a uniform radial grid of dG=0.02 with 1265 points.
  Transforming local potential to a uniform radial grid of dG=0.02 with 1265 points.
  Transforming nonlocal projectors to a uniform radial grid of dG=0.02 with 432 points.
  Transforming density augmentations to a uniform radial grid of dG=0.02 with 1265 points.
  Transforming atomic orbitals to a uniform radial grid of dG=0.02 with 432 points.
  Core radius for overlap checks: 1.25 bohrs.

Reading pseudopotential file '/home/jfm343/JDFTXDIR/build/pseudopotentials/GBRV/c_pbesol.uspp':
  Title: C.  Created by USPP 7.3.6 on 3-2-2014
  Reference state energy: -5.383511.  4 valence electrons in orbitals:
    |200>  occupation: 2  eigenvalue: -0.501126
    |210>  occupation: 2  eigenvalue: -0.192448
  lMax: 1  lLocal: 2  QijEcut: 5
  4 projectors sampled on a log grid with 503 points:
    l: 0  eig: -0.501126  rCut: 1.3
    l: 0  eig: 0.000000  rCut: 1.3
    l: 1  eig: -0.192448  rCut: 1.3
    l: 1  eig: 0.000000  rCut: 1.3
  Partial core density with radius 1.1
  Transforming core density to a uniform radial grid of dG=0.02 with 1265 points.
  Transforming local potential to a uniform radial grid of dG=0.02 with 1265 points.
  Transforming nonlocal projectors to a uniform radial grid of dG=0.02 with 432 points.
  Transforming density augmentations to a uniform radial grid of dG=0.02 with 1265 points.
  Transforming atomic orbitals to a uniform radial grid of dG=0.02 with 432 points.
  Core radius for overlap checks: 1.30 bohrs.

Reading pseudopotential file '/home/jfm343/JDFTXDIR/build/pseudopotentials/GBRV/pt_pbesol.uspp':
  Title: Pt.  Created by USPP 7.3.6 on 22-9-15
  Reference state energy: -104.899005.  16 valence electrons in orbitals:
    |510>  occupation: 6  eigenvalue: -2.158847
    |520>  occupation: 9.5  eigenvalue: -0.336311
    |600>  occupation: 0  eigenvalue: -0.320324
    |610>  occupation: 0  eigenvalue: -0.119800
  lMax: 2  lLocal: 3  QijEcut: 5.5
  6 projectors sampled on a log grid with 745 points:
    l: 0  eig: -0.320324  rCut: 2.45
    l: 0  eig: 1.500000  rCut: 2.45
    l: 1  eig: -2.158847  rCut: 1.6
    l: 1  eig: -0.119800  rCut: 1.6
    l: 2  eig: -0.500000  rCut: 1.6
    l: 2  eig: -0.336311  rCut: 1.6
  Partial core density with radius 1.1
  Transforming core density to a uniform radial grid of dG=0.02 with 1265 points.
  Transforming local potential to a uniform radial grid of dG=0.02 with 1265 points.
  Transforming nonlocal projectors to a uniform radial grid of dG=0.02 with 432 points.
  Transforming density augmentations to a uniform radial grid of dG=0.02 with 1265 points.
  Transforming atomic orbitals to a uniform radial grid of dG=0.02 with 432 points.
  Core radius for overlap checks: 2.45 bohrs.

Initialized 3 species with 22 total atoms.

Folded 1 k-points by 4x4x1 to 16 k-points.

---------- Setting up k-points, bands, fillings ----------
Reduced to 6 k-points under symmetry. 
Computing the number of bands and number of electrons
Calculating initial fillings.
nElectrons: 330.000000   nBands: 248   nStates: 6

----- Setting up reduced wavefunction bases (one per k-point) -----
average nbasis = 20861.812 , ideal nbasis = 20851.448

---------- Setting up coulomb interaction ----------
Setting up double-sized grid for truncated Coulomb potentials:
R = 
[    10.4793          0          0  ]
[          0    10.4793          0  ]
[          0          0     88.892  ]
unit cell volume = 9761.74
G =
[   0.599581          0          0  ]
[          0   0.599581          0  ]
[          0          0  0.0706834  ]
Chosen fftbox size, S = [  48  48  420  ]
Integer grid location selected as the embedding center:
   Grid: [  0  0  0  ]
   Lattice: [  0  0  0  ]
   Cartesian: [  0  0  0  ]
Constructing Wigner-Seitz cell: 6 faces (6 quadrilaterals, 0 hexagons)
Range-separation parameter for embedded mesh potentials due to point charges: 0.589462 bohrs.
Initialized slab truncation along lattice direction 001

---------- Setting up 2D ewald sum ----------
Optimum gaussian width for ewald sums = 6.251509 bohr.
Real space sums over 225 unit cells with max indices [  7  7  0  ]
Reciprocal space sums over 81 terms with max indices [  4  4  0  ]

---------- Allocating electronic variables ----------
Initializing wave functions:  linear combination of atomic orbitals
O pseudo-atom occupations:   s ( 2 )  p ( 4 )
C pseudo-atom occupations:   s ( 2 )  p ( 2 )
Pt pseudo-atom occupations:   s ( 0 )  p ( 6 0 )  d ( 10 )
	FillingsUpdate:  mu: -2.817551712  nElectrons: 330.000000
LCAOMinimize: Iter:   0  F: -1785.4402958903474428  |grad|_K:  5.377e-02  alpha:  1.000e+00
LCAOMinimize: 	Step increased F by 8.204944e+02, reducing alpha to 2.574497e-02.
LCAOMinimize: 	Step increased F by 2.617218e+00, reducing alpha to 2.574497e-03.
	FillingsUpdate:  mu: -2.402283307  nElectrons: 330.000000
LCAOMinimize: Iter:   1  F: -1788.0772851223748603  |grad|_K:  4.640e-02  alpha:  2.574e-03  linmin: -2.651e-01  cgtest:  9.357e-01  t[s]:    315.53
LCAOMinimize: Encountered beta<0, resetting CG.
LCAOMinimize: 	Predicted alpha/alphaT>3.000000, increasing alphaT to 7.723491e-03.
	FillingsUpdate:  mu: -0.849089569  nElectrons: 330.000000
LCAOMinimize: Iter:   2  F: -1793.4036405523374924  |grad|_K:  6.493e-02  alpha:  2.202e-02  linmin:  8.647e-02  cgtest: -3.358e-01  t[s]:    399.58
	FillingsUpdate:  mu: +0.448541678  nElectrons: 330.000000
LCAOMinimize: Iter:   3  F: -1795.3253989641125372  |grad|_K:  5.599e-02  alpha:  6.224e-03  linmin:  1.277e-04  cgtest:  8.889e-01  t[s]:    465.92
LCAOMinimize: Encountered beta<0, resetting CG.
	FillingsUpdate:  mu: -0.205022342  nElectrons: 330.000000
LCAOMinimize: Iter:   4  F: -1798.7587529038737557  |grad|_K:  1.536e-02  alpha:  5.895e-03  linmin: -1.003e-02  cgtest:  5.841e-02  t[s]:    531.30
LCAOMinimize: 	Predicted alpha/alphaT>3.000000, increasing alphaT to 1.768552e-02.
	FillingsUpdate:  mu: -0.709067757  nElectrons: 330.000000
LCAOMinimize: Iter:   5  F: -1800.2571648506545898  |grad|_K:  8.156e-03  alpha:  3.500e-02  linmin:  2.875e-02  cgtest: -1.913e-01  t[s]:    615.21
	FillingsUpdate:  mu: -0.605355575  nElectrons: 330.000000
LCAOMinimize: Iter:   6  F: -1800.5005981625358800  |grad|_K:  1.070e-02  alpha:  2.195e-02  linmin:  9.157e-04  cgtest:  5.877e-02  t[s]:    681.49
	FillingsUpdate:  mu: -0.339998210  nElectrons: 330.000000
LCAOMinimize: Iter:   7  F: -1801.2894305621730382  |grad|_K:  4.998e-03  alpha:  3.529e-02  linmin: -3.360e-02  cgtest: -2.379e-01  t[s]:    746.09
	FillingsUpdate:  mu: -0.254004574  nElectrons: 330.000000
LCAOMinimize: Iter:   8  F: -1801.3775746211908881  |grad|_K:  4.284e-03  alpha:  1.583e-02  linmin: -9.461e-04  cgtest: -2.850e-01  t[s]:    812.37
	FillingsUpdate:  mu: -0.128017433  nElectrons: 330.000000
LCAOMinimize: Iter:   9  F: -1801.4642780208571367  |grad|_K:  3.082e-03  alpha:  2.496e-02  linmin: -3.834e-03  cgtest:  3.736e-01  t[s]:    877.54
	FillingsUpdate:  mu: -0.131731191  nElectrons: 330.000000
LCAOMinimize: Iter:  10  F: -1801.5318931662168325  |grad|_K:  5.284e-03  alpha:  3.712e-02  linmin: -4.435e-03  cgtest:  6.407e-03  t[s]:    942.27
	FillingsUpdate:  mu: -0.243149136  nElectrons: 330.000000
LCAOMinimize: Iter:  11  F: -1801.6256882169825531  |grad|_K:  2.436e-03  alpha:  1.774e-02  linmin:  3.346e-03  cgtest: -3.285e-01  t[s]:   1007.23
LCAOMinimize: 	Predicted alpha/alphaT>3.000000, increasing alphaT to 5.323058e-02.
	FillingsUpdate:  mu: -0.227512868  nElectrons: 330.000000
LCAOMinimize: Iter:  12  F: -1801.7115560774871028  |grad|_K:  1.683e-03  alpha:  8.076e-02  linmin:  3.075e-03  cgtest:  4.821e-01  t[s]:   1087.25
	FillingsUpdate:  mu: -0.182091472  nElectrons: 330.000000
LCAOMinimize: Iter:  13  F: -1801.7322320548269090  |grad|_K:  2.294e-03  alpha:  3.747e-02  linmin: -4.350e-03  cgtest:  3.605e-02  t[s]:   1154.01
	FillingsUpdate:  mu: -0.173897943  nElectrons: 330.000000
LCAOMinimize: Iter:  14  F: -1801.7464614078437535  |grad|_K:  1.317e-03  alpha:  1.387e-02  linmin: -3.314e-03  cgtest: -5.336e-02  t[s]:   1220.13
LCAOMinimize: 	Predicted alpha/alphaT>3.000000, increasing alphaT to 4.160251e-02.
	FillingsUpdate:  mu: -0.216624448  nElectrons: 330.000000
LCAOMinimize: Iter:  15  F: -1801.7701706481207111  |grad|_K:  7.873e-04  alpha:  7.299e-02  linmin:  3.948e-03  cgtest: -7.777e-02  t[s]:   1302.79
	FillingsUpdate:  mu: -0.223386804  nElectrons: 330.000000
LCAOMinimize: Iter:  16  F: -1801.7716085884867425  |grad|_K:  6.783e-04  alpha:  1.275e-02  linmin:  4.826e-04  cgtest:  2.224e-02  t[s]:   1368.87
LCAOMinimize: 	Predicted alpha/alphaT>3.000000, increasing alphaT to 3.824990e-02.
	FillingsUpdate:  mu: -0.252230881  nElectrons: 330.000000
LCAOMinimize: Iter:  17  F: -1801.7759000310925330  |grad|_K:  5.711e-04  alpha:  5.036e-02  linmin:  8.846e-04  cgtest: -3.328e-02  t[s]:   1451.24
	FillingsUpdate:  mu: -0.248188175  nElectrons: 330.000000
LCAOMinimize: Iter:  18  F: -1801.7781024561336380  |grad|_K:  6.684e-04  alpha:  3.618e-02  linmin:  2.605e-04  cgtest:  2.062e-02  t[s]:   1517.85
	FillingsUpdate:  mu: -0.248397218  nElectrons: 330.000000
LCAOMinimize: Iter:  19  F: -1801.7790223732122286  |grad|_K:  2.519e-04  alpha:  1.107e-02  linmin: -4.845e-04  cgtest: -5.342e-03  t[s]:   1582.19
LCAOMinimize: 	Predicted alpha/alphaT>3.000000, increasing alphaT to 3.322353e-02.
	FillingsUpdate:  mu: -0.244976461  nElectrons: 330.000000
LCAOMinimize: Iter:  20  F: -1801.7797841964152212  |grad|_K:  2.951e-04  alpha:  6.452e-02  linmin:  3.431e-04  cgtest: -7.962e-03  t[s]:   1666.16
	FillingsUpdate:  mu: -0.246825915  nElectrons: 330.000000
LCAOMinimize: Iter:  21  F: -1801.7799907094336049  |grad|_K:  2.149e-04  alpha:  1.299e-02  linmin:  2.542e-03  cgtest: -1.360e-02  t[s]:   1731.10
	FillingsUpdate:  mu: -0.251788746  nElectrons: 330.000000
LCAOMinimize: Iter:  22  F: -1801.7802029742269951  |grad|_K:  9.084e-05  alpha:  2.514e-02  linmin:  1.566e-03  cgtest:  3.436e-02  t[s]:   1798.28
	FillingsUpdate:  mu: -0.252132297  nElectrons: 330.000000
LCAOMinimize: Iter:  23  F: -1801.7802708196218191  |grad|_K:  1.678e-04  alpha:  4.428e-02  linmin: -3.809e-04  cgtest: -2.040e-04  t[s]:   1863.61
	FillingsUpdate:  mu: -0.251312315  nElectrons: 330.000000
LCAOMinimize: Iter:  24  F: -1801.7803768684937040  |grad|_K:  9.357e-05  alpha:  2.011e-02  linmin: -3.256e-04  cgtest: -3.311e-02  t[s]:   1928.34
	FillingsUpdate:  mu: -0.247525675  nElectrons: 330.000000
LCAOMinimize: Iter:  25  F: -1801.7804331896472831  |grad|_K:  5.927e-05  alpha:  3.450e-02  linmin: -1.535e-04  cgtest:  2.917e-03  t[s]:   1994.81
	FillingsUpdate:  mu: -0.246851071  nElectrons: 330.000000
LCAOMinimize: Iter:  26  F: -1801.7804405199531175  |grad|_K:  4.153e-05  alpha:  1.120e-02  linmin: -1.614e-04  cgtest:  7.381e-04  t[s]:   2059.50
LCAOMinimize: 	Predicted alpha/alphaT>3.000000, increasing alphaT to 3.360627e-02.
	FillingsUpdate:  mu: -0.245067351  nElectrons: 330.000000
LCAOMinimize: Iter:  27  F: -1801.7804652318507124  |grad|_K:  5.222e-05  alpha:  7.695e-02  linmin: -8.781e-05  cgtest:  4.139e-03  t[s]:   2143.46
	FillingsUpdate:  mu: -0.245419994  nElectrons: 330.000000
LCAOMinimize: Iter:  28  F: -1801.7804792557949440  |grad|_K:  6.195e-05  alpha:  2.759e-02  linmin: -5.913e-05  cgtest:  8.008e-04  t[s]:   2208.41
	FillingsUpdate:  mu: -0.246259317  nElectrons: 330.000000
LCAOMinimize: Iter:  29  F: -1801.7804891002404020  |grad|_K:  1.860e-05  alpha:  1.380e-02  linmin:  1.178e-04  cgtest: -8.789e-03  t[s]:   2274.28
LCAOMinimize: 	Predicted alpha/alphaT>3.000000, increasing alphaT to 4.139086e-02.
	FillingsUpdate:  mu: -0.246959268  nElectrons: 330.000000
LCAOMinimize: Iter:  30  F: -1801.7804925553898556  |grad|_K:  2.925e-05  alpha:  5.378e-02  linmin:  3.606e-05  cgtest:  6.455e-04  t[s]:   2357.00
LCAOMinimize: None of the convergence criteria satisfied after 30 iterations.


---- Citations for features of the code used in this run ----

   Software package:
      R. Sundararaman, K. Letchworth-Weaver, K.A. Schwarz, D. Gunceler, Y. Ozhabes and T.A. Arias, 'JDFTx: software for joint density-functional theory', SoftwareX 6, 278 (2017)

   gga-PBEsol exchange-correlation functional:
      J.P. Perdew et al., Phys. Rev. Lett. 100, 136406 (2008)

   Pseudopotentials:
      KF Garrity, JW Bennett, KM Rabe and D Vanderbilt, Comput. Mater. Sci. 81, 446 (2014)

   Truncated Coulomb potentials:
      R. Sundararaman and T.A. Arias, Phys. Rev. B 87, 165122 (2013)

   Total energy minimization with Auxiliary Hamiltonian:
      C. Freysoldt, S. Boeck, and J. Neugebauer, Phys. Rev. B 79, 241103(R) (2009)

This list may not be complete. Please suggest additional citations or
report any other bugs at https://github.com/shankar1729/jdftx/issues

Initialization completed successfully at t[s]:   2410.19


-------- Electronic minimization -----------
	FillingsUpdate:  mu: -0.246959268  nElectrons: 330.000000
ElecMinimize: Iter:   0  F: -1801.780492555405090  |grad|_K:  1.700e-04  alpha:  1.000e+00
	FillingsUpdate:  mu: -0.176255008  nElectrons: 330.000000
	SubspaceRotationAdjust: set factor to 0.647
ElecMinimize: Iter:   1  F: -1802.151409425879820  |grad|_K:  1.545e-04  alpha:  4.211e-01  linmin:  1.047e-04  t[s]:   2786.44
	FillingsUpdate:  mu: -0.182940104  nElectrons: 330.000000
	SubspaceRotationAdjust: set factor to 0.336
ElecMinimize: Iter:   2  F: -1802.157527404782059  |grad|_K:  1.106e-04  alpha:  1.132e-02  linmin:  8.525e-04  t[s]:   3046.71
ElecMinimize: 	Predicted alpha/alphaT>3.000000, increasing alphaT to 3.394866e-02.
ElecMinimize: 	Predicted alpha/alphaT>3.000000, increasing alphaT to 1.018460e-01.
	FillingsUpdate:  mu: -0.221430163  nElectrons: 330.000000
	SubspaceRotationAdjust: set factor to 0.194
ElecMinimize: Iter:   3  F: -1802.206996802311551  |grad|_K:  1.229e-04  alpha:  1.733e-01  linmin:  1.233e-05  t[s]:   3426.63
	FillingsUpdate:  mu: -0.235304288  nElectrons: 330.000000
	SubspaceRotationAdjust: set factor to 0.138
ElecMinimize: Iter:   4  F: -1802.222297414296463  |grad|_K:  7.228e-05  alpha:  3.208e-02  linmin: -5.736e-05  t[s]:   3683.09
ElecMinimize: 	Predicted alpha/alphaT>3.000000, increasing alphaT to 9.622988e-02.
	FillingsUpdate:  mu: -0.191859406  nElectrons: 330.000000
	SubspaceRotationAdjust: set factor to 0.126
	SubspaceRotationAdjust: resetting CG because factor has changed by 0.126271
ElecMinimize: 	State modified externally: resetting search direction.
ElecMinimize: Iter:   5  F: -1802.245315075149165  |grad|_K:  4.316e-05  alpha:  1.394e-01
	FillingsUpdate:  mu: -0.198423433  nElectrons: 330.000000
	SubspaceRotationAdjust: set factor to 0.0583
ElecMinimize: Iter:   6  F: -1802.250259129238657  |grad|_K:  3.232e-05  alpha:  8.516e-02  linmin:  1.164e-05  t[s]:   4356.91
	FillingsUpdate:  mu: -0.214456590  nElectrons: 330.000000
	SubspaceRotationAdjust: set factor to 0.0495
ElecMinimize: Iter:   7  F: -1802.256849702251657  |grad|_K:  1.491e-05  alpha:  2.021e-01  linmin: -3.734e-05  t[s]:   4614.93
	FillingsUpdate:  mu: -0.207100796  nElectrons: 330.000000
	SubspaceRotationAdjust: set factor to 0.0597
ElecMinimize: Iter:   8  F: -1802.260579236994772  |grad|_K:  1.005e-05  alpha:  5.375e-01  linmin:  4.276e-05  t[s]:   4873.62
	FillingsUpdate:  mu: -0.202233556  nElectrons: 330.000000
	SubspaceRotationAdjust: set factor to 0.044
ElecMinimize: Iter:   9  F: -1802.261726087272791  |grad|_K:  1.091e-05  alpha:  3.646e-01  linmin: -2.405e-06  t[s]:   5134.04
	FillingsUpdate:  mu: -0.202367936  nElectrons: 330.000000
	SubspaceRotationAdjust: set factor to 0.0366
ElecMinimize: Iter:  10  F: -1802.262534249584178  |grad|_K:  5.367e-06  alpha:  2.171e-01  linmin:  9.532e-08  t[s]:   5391.20
	FillingsUpdate:  mu: -0.204486621  nElectrons: 330.000000
	SubspaceRotationAdjust: set factor to 0.0456
ElecMinimize: Iter:  11  F: -1802.263101042661219  |grad|_K:  5.446e-06  alpha:  6.321e-01  linmin:  1.150e-05  t[s]:   5649.68
	FillingsUpdate:  mu: -0.205997447  nElectrons: 330.000000
	SubspaceRotationAdjust: set factor to 0.0481
ElecMinimize: Iter:  12  F: -1802.263834521028457  |grad|_K:  6.940e-06  alpha:  7.936e-01  linmin: -1.677e-05  t[s]:   5912.96
	FillingsUpdate:  mu: -0.205805014  nElectrons: 330.000000
	SubspaceRotationAdjust: set factor to 0.0396
ElecMinimize: Iter:  13  F: -1802.264452868020271  |grad|_K:  7.994e-06  alpha:  4.156e-01  linmin:  1.830e-05  t[s]:   6175.30
	FillingsUpdate:  mu: -0.204840151  nElectrons: 330.000000
	SubspaceRotationAdjust: set factor to 0.0337
ElecMinimize: Iter:  14  F: -1802.265313404772769  |grad|_K:  7.054e-06  alpha:  4.352e-01  linmin: -1.843e-05  t[s]:   6432.67
	FillingsUpdate:  mu: -0.206420201  nElectrons: 330.000000
	SubspaceRotationAdjust: set factor to 0.0362
ElecMinimize: Iter:  15  F: -1802.266246841140628  |grad|_K:  6.545e-06  alpha:  5.900e-01  linmin: -2.072e-05  t[s]:   6690.02
	FillingsUpdate:  mu: -0.207151647  nElectrons: 330.000000
	SubspaceRotationAdjust: set factor to 0.0356
ElecMinimize: Iter:  16  F: -1802.266931467285076  |grad|_K:  5.181e-06  alpha:  5.045e-01  linmin: -8.088e-06  t[s]:   6948.43
	FillingsUpdate:  mu: -0.206079281  nElectrons: 330.000000
	SubspaceRotationAdjust: set factor to 0.0279
ElecMinimize: Iter:  17  F: -1802.267259849368656  |grad|_K:  3.897e-06  alpha:  3.904e-01  linmin: -2.718e-06  t[s]:   7209.85
	FillingsUpdate:  mu: -0.206194148  nElectrons: 330.000000
	SubspaceRotationAdjust: set factor to 0.0225
ElecMinimize: Iter:  18  F: -1802.267420959197352  |grad|_K:  2.573e-06  alpha:  3.397e-01  linmin: -2.894e-06  t[s]:   7468.84
	FillingsUpdate:  mu: -0.206810708  nElectrons: 330.000000
	SubspaceRotationAdjust: set factor to 0.0274
ElecMinimize: Iter:  19  F: -1802.267510873363790  |grad|_K:  1.721e-06  alpha:  4.345e-01  linmin: -5.403e-06  t[s]:   7731.67
	FillingsUpdate:  mu: -0.206960846  nElectrons: 330.000000
	SubspaceRotationAdjust: set factor to 0.0279
ElecMinimize: Iter:  20  F: -1802.267553275297360  |grad|_K:  1.366e-06  alpha:  4.580e-01  linmin: -4.573e-06  t[s]:   7988.90
	FillingsUpdate:  mu: -0.206954770  nElectrons: 330.000000
	SubspaceRotationAdjust: set factor to 0.0283
ElecMinimize: Iter:  21  F: -1802.267579929321300  |grad|_K:  1.121e-06  alpha:  4.572e-01  linmin: -2.306e-06  t[s]:   8246.40
	FillingsUpdate:  mu: -0.206853372  nElectrons: 330.000000
	SubspaceRotationAdjust: set factor to 0.0327
ElecMinimize: Iter:  22  F: -1802.267602958188490  |grad|_K:  1.136e-06  alpha:  5.867e-01  linmin: -1.393e-06  t[s]:   8502.85
	FillingsUpdate:  mu: -0.206745696  nElectrons: 330.000000
	SubspaceRotationAdjust: set factor to 0.0371
ElecMinimize: Iter:  23  F: -1802.267630391173725  |grad|_K:  1.301e-06  alpha:  6.800e-01  linmin: -1.781e-06  t[s]:   8762.44
	FillingsUpdate:  mu: -0.206565616  nElectrons: 330.000000
	SubspaceRotationAdjust: set factor to 0.0361
ElecMinimize: Iter:  24  F: -1802.267662605084979  |grad|_K:  1.519e-06  alpha:  6.090e-01  linmin: -8.045e-07  t[s]:   9022.68
	FillingsUpdate:  mu: -0.206160418  nElectrons: 330.000000
	SubspaceRotationAdjust: set factor to 0.0307
ElecMinimize: Iter:  25  F: -1802.267696585413205  |grad|_K:  1.489e-06  alpha:  4.725e-01  linmin:  5.845e-07  t[s]:   9284.03
	FillingsUpdate:  mu: -0.205901012  nElectrons: 330.000000
	SubspaceRotationAdjust: set factor to 0.0308
ElecMinimize: Iter:  26  F: -1802.267730917127665  |grad|_K:  1.282e-06  alpha:  4.967e-01  linmin: -1.468e-07  t[s]:   9540.82
	FillingsUpdate:  mu: -0.205797316  nElectrons: 330.000000
	SubspaceRotationAdjust: set factor to 0.0335
ElecMinimize: Iter:  27  F: -1802.267757545217364  |grad|_K:  1.021e-06  alpha:  5.189e-01  linmin:  1.556e-07  t[s]:   9801.34
	FillingsUpdate:  mu: -0.205694377  nElectrons: 330.000000
	SubspaceRotationAdjust: set factor to 0.0316
ElecMinimize: Iter:  28  F: -1802.267772723429971  |grad|_K:  8.459e-07  alpha:  4.668e-01  linmin: -3.933e-07  t[s]:  10055.75
	FillingsUpdate:  mu: -0.205591306  nElectrons: 330.000000
	SubspaceRotationAdjust: set factor to 0.0276
ElecMinimize: Iter:  29  F: -1802.267781118926450  |grad|_K:  6.542e-07  alpha:  3.759e-01  linmin: -6.036e-07  t[s]:  10315.28
	FillingsUpdate:  mu: -0.205425977  nElectrons: 330.000000
	SubspaceRotationAdjust: set factor to 0.0331
ElecMinimize: Iter:  30  F: -1802.267787393135904  |grad|_K:  4.912e-07  alpha:  4.693e-01  linmin: -1.251e-06  t[s]:  10575.86
	FillingsUpdate:  mu: -0.205437716  nElectrons: 330.000000
	SubspaceRotationAdjust: set factor to 0.0375
ElecMinimize: Iter:  31  F: -1802.267791891424622  |grad|_K:  4.569e-07  alpha:  5.964e-01  linmin: -1.764e-06  t[s]:  10836.32
	FillingsUpdate:  mu: -0.205482068  nElectrons: 330.000000
	SubspaceRotationAdjust: set factor to 0.0345
ElecMinimize: Iter:  32  F: -1802.267794685456010  |grad|_K:  4.425e-07  alpha:  4.282e-01  linmin:  1.344e-07  t[s]:  11094.85
	FillingsUpdate:  mu: -0.205456543  nElectrons: 330.000000
	SubspaceRotationAdjust: set factor to 0.0332
ElecMinimize: Iter:  33  F: -1802.267797462321369  |grad|_K:  3.744e-07  alpha:  4.544e-01  linmin: -6.593e-07  t[s]:  11355.70
	FillingsUpdate:  mu: -0.205467040  nElectrons: 330.000000
	SubspaceRotationAdjust: set factor to 0.0376
ElecMinimize: Iter:  34  F: -1802.267800028880401  |grad|_K:  3.324e-07  alpha:  5.860e-01  linmin: -9.705e-08  t[s]:  11617.46
	FillingsUpdate:  mu: -0.205507078  nElectrons: 330.000000
	SubspaceRotationAdjust: set factor to 0.041
ElecMinimize: Iter:  35  F: -1802.267801897242407  |grad|_K:  3.004e-07  alpha:  5.418e-01  linmin:  8.378e-08  t[s]:  11876.35
	FillingsUpdate:  mu: -0.205508874  nElectrons: 330.000000
	SubspaceRotationAdjust: set factor to 0.0392
ElecMinimize: Iter:  36  F: -1802.267803227189006  |grad|_K:  2.857e-07  alpha:  4.726e-01  linmin: -1.227e-07  t[s]:  12134.50
	FillingsUpdate:  mu: -0.205532312  nElectrons: 330.000000
	SubspaceRotationAdjust: set factor to 0.0343
ElecMinimize: Iter:  37  F: -1802.267804186883268  |grad|_K:  2.567e-07  alpha:  3.770e-01  linmin:  2.241e-07  t[s]:  12396.50
	FillingsUpdate:  mu: -0.205548357  nElectrons: 330.000000
	SubspaceRotationAdjust: set factor to 0.0382
ElecMinimize: Iter:  38  F: -1802.267805214724149  |grad|_K:  2.186e-07  alpha:  5.005e-01  linmin:  4.157e-07  t[s]:  12656.23
	FillingsUpdate:  mu: -0.205575846  nElectrons: 330.000000
	SubspaceRotationAdjust: set factor to 0.0444
ElecMinimize: Iter:  39  F: -1802.267806183773473  |grad|_K:  2.167e-07  alpha:  6.505e-01  linmin:  3.541e-07  t[s]:  12918.53
	FillingsUpdate:  mu: -0.205614522  nElectrons: 330.000000
	SubspaceRotationAdjust: set factor to 0.045
ElecMinimize: Iter:  40  F: -1802.267807080461580  |grad|_K:  2.412e-07  alpha:  6.113e-01  linmin: -2.776e-07  t[s]:  13178.40
	FillingsUpdate:  mu: -0.205627503  nElectrons: 330.000000
	SubspaceRotationAdjust: set factor to 0.036
ElecMinimize: Iter:  41  F: -1802.267807704202824  |grad|_K:  2.312e-07  alpha:  3.434e-01  linmin: -2.069e-08  t[s]:  13437.72
	FillingsUpdate:  mu: -0.205666349  nElectrons: 330.000000
	SubspaceRotationAdjust: set factor to 0.0353
ElecMinimize: Iter:  42  F: -1802.267808444469665  |grad|_K:  1.716e-07  alpha:  4.428e-01  linmin:  3.282e-07  t[s]:  13696.04
	FillingsUpdate:  mu: -0.205685814  nElectrons: 330.000000
	SubspaceRotationAdjust: set factor to 0.0396
ElecMinimize: Iter:  43  F: -1802.267808983886198  |grad|_K:  1.354e-07  alpha:  5.858e-01  linmin: -1.322e-06  t[s]:  13957.52
	FillingsUpdate:  mu: -0.205702782  nElectrons: 330.000000
	SubspaceRotationAdjust: set factor to 0.039
ElecMinimize: Iter:  44  F: -1802.267809269073041  |grad|_K:  1.184e-07  alpha:  4.946e-01  linmin:  8.972e-07  t[s]:  14215.15
	FillingsUpdate:  mu: -0.205710419  nElectrons: 330.000000
	SubspaceRotationAdjust: set factor to 0.0325
ElecMinimize: Iter:  45  F: -1802.267809413447821  |grad|_K:  9.421e-08  alpha:  3.321e-01  linmin: -9.072e-07  t[s]:  14473.72
	FillingsUpdate:  mu: -0.205698868  nElectrons: 330.000000
	SubspaceRotationAdjust: set factor to 0.0354
ElecMinimize: Iter:  46  F: -1802.267809530670547  |grad|_K:  7.112e-08  alpha:  4.169e-01  linmin: -1.778e-06  t[s]:  14729.83
	FillingsUpdate:  mu: -0.205701009  nElectrons: 330.000000
	SubspaceRotationAdjust: set factor to 0.044
ElecMinimize: Iter:  47  F: -1802.267809619028412  |grad|_K:  6.486e-08  alpha:  5.464e-01  linmin: -2.561e-06  t[s]:  14987.30
	FillingsUpdate:  mu: -0.205711519  nElectrons: 330.000000
	SubspaceRotationAdjust: set factor to 0.0477
ElecMinimize: Iter:  48  F: -1802.267809696085806  |grad|_K:  7.185e-08  alpha:  5.754e-01  linmin: -2.726e-06  t[s]:  15245.13
	FillingsUpdate:  mu: -0.205706702  nElectrons: 330.000000
	SubspaceRotationAdjust: set factor to 0.0424
ElecMinimize: Iter:  49  F: -1802.267809763035302  |grad|_K:  7.957e-08  alpha:  4.103e-01  linmin:  3.770e-07  t[s]:  15507.40
	FillingsUpdate:  mu: -0.205698819  nElectrons: 330.000000
	SubspaceRotationAdjust: set factor to 0.0395
ElecMinimize: Iter:  50  F: -1802.267809848694469  |grad|_K:  7.310e-08  alpha:  4.404e-01  linmin:  1.411e-06  t[s]:  15766.90
	FillingsUpdate:  mu: -0.205688012  nElectrons: 330.000000
	SubspaceRotationAdjust: set factor to 0.0423
ElecMinimize: Iter:  51  F: -1802.267809943858310  |grad|_K:  6.405e-08  alpha:  5.867e-01  linmin:  1.038e-06  t[s]:  16023.89
	FillingsUpdate:  mu: -0.205683712  nElectrons: 330.000000
	SubspaceRotationAdjust: set factor to 0.0457
ElecMinimize: Iter:  52  F: -1802.267810017944612  |grad|_K:  5.213e-08  alpha:  5.868e-01  linmin: -8.049e-07  t[s]:  16285.64
	FillingsUpdate:  mu: -0.205679897  nElectrons: 330.000000
	SubspaceRotationAdjust: set factor to 0.0442
ElecMinimize: Iter:  53  F: -1802.267810057668839  |grad|_K:  4.536e-08  alpha:  4.503e-01  linmin: -2.660e-06  t[s]:  16545.13
	FillingsUpdate:  mu: -0.205674170  nElectrons: 330.000000
	SubspaceRotationAdjust: set factor to 0.0358
ElecMinimize: Iter:  54  F: -1802.267810076899650  |grad|_K:  3.635e-08  alpha:  2.968e-01  linmin:  3.979e-07  t[s]:  16806.67
	FillingsUpdate:  mu: -0.205671959  nElectrons: 330.000000
	SubspaceRotationAdjust: set factor to 0.0391
ElecMinimize: Iter:  55  F: -1802.267810092628451  |grad|_K:  2.616e-08  alpha:  3.963e-01  linmin:  6.741e-07  t[s]:  17065.73
	FillingsUpdate:  mu: -0.205668473  nElectrons: 330.000000
	SubspaceRotationAdjust: set factor to 0.0477
ElecMinimize: Iter:  56  F: -1802.267810103378224  |grad|_K:  2.438e-08  alpha:  5.554e-01  linmin:  3.296e-06  t[s]:  17325.14
	FillingsUpdate:  mu: -0.205665169  nElectrons: 330.000000
	SubspaceRotationAdjust: set factor to 0.0512
ElecMinimize: Iter:  57  F: -1802.267810113524547  |grad|_K:  3.228e-08  alpha:  7.541e-01  linmin:  1.822e-05  t[s]:  17583.36
	FillingsUpdate:  mu: -0.205664949  nElectrons: 330.000000
	SubspaceRotationAdjust: set factor to 0.0493
ElecMinimize: Iter:  58  F: -1802.267810119945352  |grad|_K:  2.970e-08  alpha:  2.780e-01  linmin:  4.287e-07  t[s]:  17845.71
	FillingsUpdate:  mu: -0.205663544  nElectrons: 330.000000
	SubspaceRotationAdjust: set factor to 0.0583
ElecMinimize: Iter:  59  F: -1802.267810128132396  |grad|_K:  2.410e-08  alpha:  3.036e-01  linmin: -6.018e-06  t[s]:  18104.11
ElecMinimize: Converged (|Delta F|<1.000000e-08 for 2 iters).
Setting wave functions to eigenvectors of Hamiltonian

# Ionic positions in lattice coordinates:
ion O   0.500000000000000   0.500000000000000   0.293619000000000 1
ion C   0.500000000000000   0.500000000000000   0.246000000000000 1
ion Pt   0.000000000000000   0.000000000000000  -0.166700000000000 0
ion Pt   0.500000000000000   0.500000000000000  -0.166700000000000 0
ion Pt   0.000000000000000   0.500000000000000  -0.166700000000000 0
ion Pt   0.500000000000000   0.000000000000000  -0.166700000000000 0
ion Pt   0.750000000000000   0.250000000000000  -0.083300000000000 0
ion Pt   0.250000000000000   0.750000000000000  -0.083300000000000 0
ion Pt   0.250000000000000   0.250000000000000  -0.083300000000000 0
ion Pt   0.750000000000000   0.750000000000000  -0.083300000000000 0
ion Pt   0.500000000000000   0.000000000000000   0.000000000000000 1
ion Pt   0.000000000000000   0.000000000000000   0.000000000000000 1
ion Pt   0.000000000000000   0.500000000000000   0.000000000000000 1
ion Pt   0.500000000000000   0.500000000000000   0.000000000000000 1
ion Pt   0.750000000000000   0.250000000000000   0.083300000000000 1
ion Pt   0.250000000000000   0.750000000000000   0.083300000000000 1
ion Pt   0.250000000000000   0.250000000000000   0.083300000000000 1
ion Pt   0.750000000000000   0.750000000000000   0.083300000000000 1
ion Pt   0.000000000000000   0.000000000000000   0.166700000000000 1
ion Pt   0.000000000000000   0.500000000000000   0.166700000000000 1
ion Pt   0.500000000000000   0.000000000000000   0.166700000000000 1
ion Pt   0.500000000000000   0.500000000000000   0.166700000000000 1


# Forces in Lattice coordinates:
force O   0.000000000000000   0.000000000000000   3.672145582215073 1
force C   0.000000000000000   0.000000000000000  -4.082679963631120 1
force Pt   0.000000000000000   0.000000000000000   0.344635352119800 0
force Pt   0.000000000000000   0.000000000000000   0.348888737711734 0
force Pt   0.000000000000000  -0.000000000000000   0.330347761995649 0
force Pt   0.000000000000000  -0.000000000000000   0.330347761995649 0
force Pt  -0.001339637913855   0.001339637913855  -0.290594889449267 0
force Pt   0.001339637913855  -0.001339637913855  -0.290594889449267 0
force Pt   0.001339637913855   0.001339637913855  -0.290594889450176 0
force Pt  -0.001339637913855  -0.001339637913855  -0.290594889449267 0
force Pt   0.000000000000000   0.000000000000000   0.057101837253601 1
force Pt   0.000000000000000   0.000000000000000  -0.249010549062187 1
force Pt   0.000000000000000   0.000000000000000   0.057101837253487 1
force Pt   0.000000000000000   0.000000000000000  -0.006288879201375 1
force Pt   0.008685120071708  -0.008685120071708   0.129979625376613 1
force Pt  -0.008685120071708   0.008685120071708   0.129979625376613 1
force Pt  -0.008685120071708  -0.008685120071708   0.129979625376613 1
force Pt   0.008685120071708   0.008685120071708   0.129979625376613 1
force Pt   0.000000000000000   0.000000000000000  -0.272140956699342 1
force Pt   0.000000000000000  -0.000000000000000  -0.483741277370492 1
force Pt   0.000000000000000   0.000000000000000  -0.483741277370492 1
force Pt   0.000000000000000   0.000000000000000   1.098494846122927 1

# Energy components:
   Eewald =   -21540.6766744891720009
       EH =   -20022.1716481292569370
     Eloc =    39445.0981383119942620
      Enl =      -17.9863093444541740
      Exc =     -571.4536730516962280
 Exc_core =      324.9288068596767971
       KE =      580.2271679355264951
-------------------------------------
     Etot =    -1802.0341919073850931
       TS =        0.2336182207472531
-------------------------------------
        F =    -1802.2678101281323961

IonicMinimize: Iter:   0  F: -1802.267810128132396  |grad|_K:  1.965e-02  t[s]:  18147.14

#--- Lowdin population analysis ---
# oxidation-state O -0.077
# oxidation-state C +0.523
# oxidation-state Pt +0.027 +0.028 +0.027 +0.027 -0.007 -0.007 -0.007 -0.007 +0.013 +0.003 +0.013 +0.013 -0.019 -0.019 -0.019 -0.019 +0.011 -0.003 -0.003 -0.173


-------- Electronic minimization -----------
	FillingsUpdate:  mu: -0.199073259  nElectrons: 330.000000
ElecMinimize: Iter:   0  F: -1802.128055127979906  |grad|_K:  1.028e-04  alpha:  1.000e+00
	FillingsUpdate:  mu: -0.208855472  nElectrons: 330.000000
	SubspaceRotationAdjust: set factor to 0.0584
ElecMinimize: Iter:   1  F: -1802.245792003718407  |grad|_K:  3.140e-05  alpha:  3.622e-01  linmin:  8.643e-03  t[s]:  18606.67
	FillingsUpdate:  mu: -0.204863389  nElectrons: 330.000000
	SubspaceRotationAdjust: set factor to 0.043
ElecMinimize: Iter:   2  F: -1802.253877663125877  |grad|_K:  2.045e-05  alpha:  2.662e-01  linmin: -9.259e-05  t[s]:  18868.81
	FillingsUpdate:  mu: -0.209837187  nElectrons: 330.000000
	SubspaceRotationAdjust: set factor to 0.0279
ElecMinimize: Iter:   3  F: -1802.255962866741129  |grad|_K:  9.663e-06  alpha:  1.597e-01  linmin:  2.111e-06  t[s]:  19129.92
	FillingsUpdate:  mu: -0.210650032  nElectrons: 330.000000
	SubspaceRotationAdjust: set factor to 0.0451
ElecMinimize: Iter:   4  F: -1802.257215579398689  |grad|_K:  5.869e-06  alpha:  4.298e-01  linmin: -2.429e-05  t[s]:  19390.10
	FillingsUpdate:  mu: -0.210589209  nElectrons: 330.000000
	SubspaceRotationAdjust: set factor to 0.0343
ElecMinimize: Iter:   5  F: -1802.257748039066200  |grad|_K:  6.412e-06  alpha:  4.951e-01  linmin:  1.844e-05  t[s]:  19647.43
	FillingsUpdate:  mu: -0.211531250  nElectrons: 330.000000
	SubspaceRotationAdjust: set factor to 0.0323
ElecMinimize: Iter:   6  F: -1802.258230661906737  |grad|_K:  6.479e-06  alpha:  3.765e-01  linmin: -4.362e-06  t[s]:  19906.31
	FillingsUpdate:  mu: -0.212643950  nElectrons: 330.000000
	SubspaceRotationAdjust: set factor to 0.0368
ElecMinimize: Iter:   7  F: -1802.259451659326260  |grad|_K:  8.696e-06  alpha:  9.322e-01  linmin:  1.032e-05  t[s]:  20165.04
	FillingsUpdate:  mu: -0.212896713  nElectrons: 330.000000
	SubspaceRotationAdjust: set factor to 0.036
ElecMinimize: Iter:   8  F: -1802.261206587170136  |grad|_K:  1.184e-05  alpha:  7.421e-01  linmin:  2.328e-05  t[s]:  20423.82
	FillingsUpdate:  mu: -0.216829670  nElectrons: 330.000000
	SubspaceRotationAdjust: set factor to 0.0277
ElecMinimize: Iter:   9  F: -1802.262956170561438  |grad|_K:  1.020e-05  alpha:  4.049e-01  linmin:  2.313e-05  t[s]:  20686.36
	FillingsUpdate:  mu: -0.218951139  nElectrons: 330.000000
	SubspaceRotationAdjust: set factor to 0.027
ElecMinimize: Iter:  10  F: -1802.264281776693679  |grad|_K:  7.083e-06  alpha:  4.098e-01  linmin:  3.815e-05  t[s]:  20944.33
	FillingsUpdate:  mu: -0.219170372  nElectrons: 330.000000
	SubspaceRotationAdjust: set factor to 0.0287
ElecMinimize: Iter:  11  F: -1802.264876520019925  |grad|_K:  4.653e-06  alpha:  3.816e-01  linmin:  6.448e-06  t[s]:  21202.10
	FillingsUpdate:  mu: -0.219555588  nElectrons: 330.000000
	SubspaceRotationAdjust: set factor to 0.0251
ElecMinimize: Iter:  12  F: -1802.265113023595859  |grad|_K:  2.732e-06  alpha:  3.502e-01  linmin: -9.845e-06  t[s]:  21463.79
	FillingsUpdate:  mu: -0.219524568  nElectrons: 330.000000
	SubspaceRotationAdjust: set factor to 0.026
ElecMinimize: Iter:  13  F: -1802.265198454373831  |grad|_K:  1.841e-06  alpha:  3.665e-01  linmin:  3.330e-06  t[s]:  21721.07
	FillingsUpdate:  mu: -0.219363911  nElectrons: 330.000000
	SubspaceRotationAdjust: set factor to 0.0344
ElecMinimize: Iter:  14  F: -1802.265240862898736  |grad|_K:  1.349e-06  alpha:  4.011e-01  linmin: -1.215e-06  t[s]:  21981.36
	FillingsUpdate:  mu: -0.219044011  nElectrons: 330.000000
	SubspaceRotationAdjust: set factor to 0.0355
ElecMinimize: Iter:  15  F: -1802.265269355049668  |grad|_K:  1.308e-06  alpha:  5.019e-01  linmin: -4.419e-06  t[s]:  22239.77
	FillingsUpdate:  mu: -0.218501156  nElectrons: 330.000000
	SubspaceRotationAdjust: set factor to 0.036
ElecMinimize: Iter:  16  F: -1802.265293828178983  |grad|_K:  1.388e-06  alpha:  4.580e-01  linmin:  8.912e-07  t[s]:  22495.78
	FillingsUpdate:  mu: -0.217701936  nElectrons: 330.000000
	SubspaceRotationAdjust: set factor to 0.0399
ElecMinimize: Iter:  17  F: -1802.265331080747728  |grad|_K:  1.363e-06  alpha:  6.193e-01  linmin: -5.830e-08  t[s]:  22754.77
	FillingsUpdate:  mu: -0.216868329  nElectrons: 330.000000
	SubspaceRotationAdjust: set factor to 0.0429
ElecMinimize: Iter:  18  F: -1802.265362157236268  |grad|_K:  1.281e-06  alpha:  5.363e-01  linmin:  4.872e-07  t[s]:  23011.46
	FillingsUpdate:  mu: -0.216198542  nElectrons: 330.000000
	SubspaceRotationAdjust: set factor to 0.0339
ElecMinimize: Iter:  19  F: -1802.265381273787170  |grad|_K:  1.086e-06  alpha:  3.730e-01  linmin:  1.900e-07  t[s]:  23271.82
	FillingsUpdate:  mu: -0.215901113  nElectrons: 330.000000
	SubspaceRotationAdjust: set factor to 0.0273
ElecMinimize: Iter:  20  F: -1802.265391991049000  |grad|_K:  6.909e-07  alpha:  2.909e-01  linmin: -6.025e-07  t[s]:  23530.69
	FillingsUpdate:  mu: -0.215709653  nElectrons: 330.000000
	SubspaceRotationAdjust: set factor to 0.0352
ElecMinimize: Iter:  21  F: -1802.265398507948930  |grad|_K:  4.559e-07  alpha:  4.376e-01  linmin:  2.379e-06  t[s]:  23794.17
	FillingsUpdate:  mu: -0.215635028  nElectrons: 330.000000
	SubspaceRotationAdjust: set factor to 0.0366
ElecMinimize: Iter:  22  F: -1802.265401124000846  |grad|_K:  3.556e-07  alpha:  4.032e-01  linmin:  4.922e-06  t[s]:  24057.79
	FillingsUpdate:  mu: -0.215635735  nElectrons: 330.000000
	SubspaceRotationAdjust: set factor to 0.039
ElecMinimize: Iter:  23  F: -1802.265402714412630  |grad|_K:  3.201e-07  alpha:  4.031e-01  linmin: -2.696e-06  t[s]:  24317.01
	FillingsUpdate:  mu: -0.215637306  nElectrons: 330.000000
	SubspaceRotationAdjust: set factor to 0.0476
ElecMinimize: Iter:  24  F: -1802.265404417463515  |grad|_K:  3.067e-07  alpha:  5.318e-01  linmin: -4.013e-06  t[s]:  24573.52
	FillingsUpdate:  mu: -0.215706421  nElectrons: 330.000000
	SubspaceRotationAdjust: set factor to 0.0557
ElecMinimize: Iter:  25  F: -1802.265406680965043  |grad|_K:  3.668e-07  alpha:  7.704e-01  linmin:  4.242e-07  t[s]:  24835.08
	FillingsUpdate:  mu: -0.215859270  nElectrons: 330.000000
	SubspaceRotationAdjust: set factor to 0.0557
ElecMinimize: Iter:  26  F: -1802.265409216593980  |grad|_K:  4.443e-07  alpha:  6.040e-01  linmin:  7.583e-07  t[s]:  25090.40
	FillingsUpdate:  mu: -0.215962546  nElectrons: 330.000000
	SubspaceRotationAdjust: set factor to 0.043
ElecMinimize: Iter:  27  F: -1802.265411054864444  |grad|_K:  4.334e-07  alpha:  2.984e-01  linmin:  9.022e-09  t[s]:  25350.95
	FillingsUpdate:  mu: -0.216125006  nElectrons: 330.000000
	SubspaceRotationAdjust: set factor to 0.0401
ElecMinimize: Iter:  28  F: -1802.265413010668226  |grad|_K:  3.021e-07  alpha:  3.337e-01  linmin:  2.819e-06  t[s]:  25604.07
	FillingsUpdate:  mu: -0.216204186  nElectrons: 330.000000
	SubspaceRotationAdjust: set factor to 0.0483
ElecMinimize: Iter:  29  F: -1802.265414294271068  |grad|_K:  2.227e-07  alpha:  4.512e-01  linmin: -9.249e-07  t[s]:  25866.96
	FillingsUpdate:  mu: -0.216237733  nElectrons: 330.000000
	SubspaceRotationAdjust: set factor to 0.0473
ElecMinimize: Iter:  30  F: -1802.265414993188870  |grad|_K:  1.985e-07  alpha:  4.509e-01  linmin:  8.395e-07  t[s]:  26123.81
	FillingsUpdate:  mu: -0.216265740  nElectrons: 330.000000
	SubspaceRotationAdjust: set factor to 0.0431
ElecMinimize: Iter:  31  F: -1802.265415334783484  |grad|_K:  1.698e-07  alpha:  2.785e-01  linmin:  2.320e-06  t[s]:  26381.63
	FillingsUpdate:  mu: -0.216266154  nElectrons: 330.000000
	SubspaceRotationAdjust: set factor to 0.0541
ElecMinimize: Iter:  32  F: -1802.265415728368907  |grad|_K:  1.336e-07  alpha:  4.382e-01  linmin:  4.773e-06  t[s]:  26636.97
	FillingsUpdate:  mu: -0.216239812  nElectrons: 330.000000
	SubspaceRotationAdjust: set factor to 0.0657
ElecMinimize: Iter:  33  F: -1802.265416048654060  |grad|_K:  1.319e-07  alpha:  5.709e-01  linmin: -1.411e-05  t[s]:  26896.59
	FillingsUpdate:  mu: -0.216203857  nElectrons: 330.000000
	SubspaceRotationAdjust: set factor to 0.0608
ElecMinimize: Iter:  34  F: -1802.265416288641063  |grad|_K:  1.462e-07  alpha:  4.379e-01  linmin: -2.441e-06  t[s]:  27154.58
	FillingsUpdate:  mu: -0.216162998  nElectrons: 330.000000
	SubspaceRotationAdjust: set factor to 0.0462
ElecMinimize: Iter:  35  F: -1802.265416429139805  |grad|_K:  1.182e-07  alpha:  2.117e-01  linmin: -2.870e-06  t[s]:  27413.21
	FillingsUpdate:  mu: -0.216116627  nElectrons: 330.000000
	SubspaceRotationAdjust: set factor to 0.0529
ElecMinimize: Iter:  36  F: -1802.265416594652834  |grad|_K:  8.560e-08  alpha:  3.920e-01  linmin:  4.694e-05  t[s]:  27672.37
	FillingsUpdate:  mu: -0.216087245  nElectrons: 330.000000
	SubspaceRotationAdjust: set factor to 0.0627
ElecMinimize: Iter:  37  F: -1802.265416698965964  |grad|_K:  6.836e-08  alpha:  4.798e-01  linmin:  4.095e-05  t[s]:  27932.45
	FillingsUpdate:  mu: -0.216066514  nElectrons: 330.000000
	SubspaceRotationAdjust: set factor to 0.0493
ElecMinimize: Iter:  38  F: -1802.265416743800870  |grad|_K:  7.175e-08  alpha:  3.063e-01  linmin: -1.129e-05  t[s]:  28189.09
	FillingsUpdate:  mu: -0.216050158  nElectrons: 330.000000
	SubspaceRotationAdjust: set factor to 0.0488
ElecMinimize: Iter:  39  F: -1802.265416787687400  |grad|_K:  5.052e-08  alpha:  2.702e-01  linmin:  6.661e-06  t[s]:  28445.38
	FillingsUpdate:  mu: -0.216034869  nElectrons: 330.000000
	SubspaceRotationAdjust: set factor to 0.0597
ElecMinimize: Iter:  40  F: -1802.265416827543731  |grad|_K:  4.589e-08  alpha:  5.354e-01  linmin:  4.279e-05  t[s]:  28707.85
	FillingsUpdate:  mu: -0.216028814  nElectrons: 330.000000
	SubspaceRotationAdjust: set factor to 0.072
ElecMinimize: Iter:  41  F: -1802.265416860217329  |grad|_K:  4.092e-08  alpha:  5.080e-01  linmin:  1.300e-05  t[s]:  28966.05
	FillingsUpdate:  mu: -0.216029356  nElectrons: 330.000000
	SubspaceRotationAdjust: set factor to 0.0694
ElecMinimize: Iter:  42  F: -1802.265416883655917  |grad|_K:  4.425e-08  alpha:  4.840e-01  linmin: -3.162e-05  t[s]:  29223.88
	FillingsUpdate:  mu: -0.216028957  nElectrons: 330.000000
	SubspaceRotationAdjust: set factor to 0.0519
ElecMinimize: Iter:  43  F: -1802.265416897596424  |grad|_K:  4.067e-08  alpha:  2.069e-01  linmin:  1.700e-05  t[s]:  29480.36
	FillingsUpdate:  mu: -0.216035824  nElectrons: 330.000000
	SubspaceRotationAdjust: set factor to 0.0551
ElecMinimize: Iter:  44  F: -1802.265416914684010  |grad|_K:  2.706e-08  alpha:  3.315e-01  linmin: -4.681e-06  t[s]:  29738.96
	FillingsUpdate:  mu: -0.216041158  nElectrons: 330.000000
	SubspaceRotationAdjust: set factor to 0.0658
ElecMinimize: Iter:  45  F: -1802.265416923848079  |grad|_K:  2.480e-08  alpha:  5.242e-01  linmin:  9.298e-05  t[s]:  29997.78
	FillingsUpdate:  mu: -0.216044602  nElectrons: 330.000000
	SubspaceRotationAdjust: set factor to 0.0716
ElecMinimize: Iter:  46  F: -1802.265416930413721  |grad|_K:  2.140e-08  alpha:  3.533e-01  linmin: -1.871e-05  t[s]:  30258.59
ElecMinimize: Converged (|Delta F|<1.000000e-08 for 2 iters).
Setting wave functions to eigenvectors of Hamiltonian
IonicMinimize: 	Wolfe criterion not satisfied: alpha: 1  (E-E0)/|gdotd0|: 0.147514  gdotd/gdotd0: -1.0821 (taking cubic step)

-------- Electronic minimization -----------
	FillingsUpdate:  mu: -0.215389661  nElectrons: 330.000000
ElecMinimize: Iter:   0  F: -1802.265554827220058  |grad|_K:  1.231e-05  alpha:  1.000e+00
	FillingsUpdate:  mu: -0.213112553  nElectrons: 330.000000
	SubspaceRotationAdjust: set factor to 0.0519
ElecMinimize: Iter:   1  F: -1802.267377162311277  |grad|_K:  8.056e-06  alpha:  3.850e-01  linmin: -1.606e-04  t[s]:  30780.26
	FillingsUpdate:  mu: -0.213607892  nElectrons: 330.000000
	SubspaceRotationAdjust: set factor to 0.0364
ElecMinimize: Iter:   2  F: -1802.267658791856093  |grad|_K:  5.171e-06  alpha:  1.390e-01  linmin:  1.384e-05  t[s]:  31040.26
ElecMinimize: 	Predicted alpha/alphaT>3.000000, increasing alphaT to 4.169974e-01.
	FillingsUpdate:  mu: -0.213242163  nElectrons: 330.000000
	SubspaceRotationAdjust: set factor to 0.0574
ElecMinimize: Iter:   3  F: -1802.268129604122123  |grad|_K:  4.474e-06  alpha:  5.641e-01  linmin: -3.657e-05  t[s]:  31362.84
	FillingsUpdate:  mu: -0.212048655  nElectrons: 330.000000
	SubspaceRotationAdjust: set factor to 0.0424
ElecMinimize: Iter:   4  F: -1802.268407392882864  |grad|_K:  5.557e-06  alpha:  4.443e-01  linmin: -5.417e-06  t[s]:  31622.90
	FillingsUpdate:  mu: -0.211603670  nElectrons: 330.000000
	SubspaceRotationAdjust: set factor to 0.0361
ElecMinimize: Iter:   5  F: -1802.268677049648886  |grad|_K:  4.751e-06  alpha:  2.799e-01  linmin:  1.899e-06  t[s]:  31885.64
ElecMinimize: 	Predicted alpha/alphaT>3.000000, increasing alphaT to 8.395672e-01.
	FillingsUpdate:  mu: -0.209306610  nElectrons: 330.000000
	SubspaceRotationAdjust: set factor to 0.0431
ElecMinimize: Iter:   6  F: -1802.269330879980998  |grad|_K:  5.784e-06  alpha:  9.279e-01  linmin: -1.952e-05  t[s]:  32208.01
	FillingsUpdate:  mu: -0.206951452  nElectrons: 330.000000
	SubspaceRotationAdjust: set factor to 0.0362
ElecMinimize: Iter:   7  F: -1802.269834775318259  |grad|_K:  6.483e-06  alpha:  4.822e-01  linmin:  5.522e-06  t[s]:  32463.95
	FillingsUpdate:  mu: -0.206597519  nElectrons: 330.000000
	SubspaceRotationAdjust: set factor to 0.0276
ElecMinimize: Iter:   8  F: -1802.270225977734071  |grad|_K:  4.129e-06  alpha:  2.986e-01  linmin:  1.850e-06  t[s]:  32726.16
	FillingsUpdate:  mu: -0.206054419  nElectrons: 330.000000
	SubspaceRotationAdjust: set factor to 0.0363
ElecMinimize: Iter:   9  F: -1802.270485870149741  |grad|_K:  2.656e-06  alpha:  4.884e-01  linmin: -7.528e-06  t[s]:  32984.23
	FillingsUpdate:  mu: -0.205940298  nElectrons: 330.000000
	SubspaceRotationAdjust: set factor to 0.0348
ElecMinimize: Iter:  10  F: -1802.270585556625974  |grad|_K:  2.240e-06  alpha:  4.526e-01  linmin:  7.164e-06  t[s]:  33242.62
	FillingsUpdate:  mu: -0.206363479  nElectrons: 330.000000
	SubspaceRotationAdjust: set factor to 0.0318
ElecMinimize: Iter:  11  F: -1802.270642697708354  |grad|_K:  1.916e-06  alpha:  3.652e-01  linmin: -2.924e-07  t[s]:  33501.05
	FillingsUpdate:  mu: -0.206975040  nElectrons: 330.000000
	SubspaceRotationAdjust: set factor to 0.0361
ElecMinimize: Iter:  12  F: -1802.270714121935725  |grad|_K:  1.877e-06  alpha:  6.234e-01  linmin:  8.649e-06  t[s]:  33762.84
	FillingsUpdate:  mu: -0.207780521  nElectrons: 330.000000
	SubspaceRotationAdjust: set factor to 0.0403
ElecMinimize: Iter:  13  F: -1802.270802474399034  |grad|_K:  2.009e-06  alpha:  8.040e-01  linmin: -3.113e-06  t[s]:  34021.63
	FillingsUpdate:  mu: -0.208699981  nElectrons: 330.000000
	SubspaceRotationAdjust: set factor to 0.0351
ElecMinimize: Iter:  14  F: -1802.270865998870477  |grad|_K:  2.032e-06  alpha:  5.045e-01  linmin:  1.278e-06  t[s]:  34283.65
	FillingsUpdate:  mu: -0.209294063  nElectrons: 330.000000
	SubspaceRotationAdjust: set factor to 0.0242
ElecMinimize: Iter:  15  F: -1802.270906620204414  |grad|_K:  1.332e-06  alpha:  3.152e-01  linmin: -3.047e-07  t[s]:  34542.04
	FillingsUpdate:  mu: -0.209726443  nElectrons: 330.000000
	SubspaceRotationAdjust: set factor to 0.0254
ElecMinimize: Iter:  16  F: -1802.270929302164404  |grad|_K:  9.016e-07  alpha:  4.096e-01  linmin: -2.231e-06  t[s]:  34800.46
	FillingsUpdate:  mu: -0.209883839  nElectrons: 330.000000
	SubspaceRotationAdjust: set factor to 0.0269
ElecMinimize: Iter:  17  F: -1802.270938855265285  |grad|_K:  5.472e-07  alpha:  3.765e-01  linmin: -3.675e-07  t[s]:  35062.41
	FillingsUpdate:  mu: -0.209933094  nElectrons: 330.000000
	SubspaceRotationAdjust: set factor to 0.0257
ElecMinimize: Iter:  18  F: -1802.270942660989704  |grad|_K:  3.629e-07  alpha:  4.071e-01  linmin: -7.948e-06  t[s]:  35318.00
	FillingsUpdate:  mu: -0.209988319  nElectrons: 330.000000
	SubspaceRotationAdjust: set factor to 0.0268
ElecMinimize: Iter:  19  F: -1802.270944414936821  |grad|_K:  2.783e-07  alpha:  4.262e-01  linmin: -3.479e-07  t[s]:  35573.41
	FillingsUpdate:  mu: -0.210008153  nElectrons: 330.000000
	SubspaceRotationAdjust: set factor to 0.0333
ElecMinimize: Iter:  20  F: -1802.270945676465544  |grad|_K:  2.550e-07  alpha:  5.214e-01  linmin: -7.695e-06  t[s]:  35830.96
	FillingsUpdate:  mu: -0.210011345  nElectrons: 330.000000
	SubspaceRotationAdjust: set factor to 0.0372
ElecMinimize: Iter:  21  F: -1802.270947014869080  |grad|_K:  2.961e-07  alpha:  6.591e-01  linmin:  1.529e-06  t[s]:  36089.35
	FillingsUpdate:  mu: -0.210029759  nElectrons: 330.000000
	SubspaceRotationAdjust: set factor to 0.034
ElecMinimize: Iter:  22  F: -1802.270948554517418  |grad|_K:  3.450e-07  alpha:  5.629e-01  linmin: -1.152e-05  t[s]:  36351.70
	FillingsUpdate:  mu: -0.210015867  nElectrons: 330.000000
	SubspaceRotationAdjust: set factor to 0.0299
ElecMinimize: Iter:  23  F: -1802.270950352585714  |grad|_K:  3.261e-07  alpha:  4.831e-01  linmin:  1.659e-06  t[s]:  36609.53
	FillingsUpdate:  mu: -0.210024721  nElectrons: 330.000000
	SubspaceRotationAdjust: set factor to 0.0332
ElecMinimize: Iter:  24  F: -1802.270952093893811  |grad|_K:  2.584e-07  alpha:  5.252e-01  linmin:  1.005e-05  t[s]:  36866.27
	FillingsUpdate:  mu: -0.210025295  nElectrons: 330.000000
	SubspaceRotationAdjust: set factor to 0.0357
ElecMinimize: Iter:  25  F: -1802.270953147772161  |grad|_K:  2.031e-07  alpha:  5.070e-01  linmin: -5.842e-07  t[s]:  37124.36
	FillingsUpdate:  mu: -0.210010693  nElectrons: 330.000000
	SubspaceRotationAdjust: set factor to 0.0322
ElecMinimize: Iter:  26  F: -1802.270953651871878  |grad|_K:  1.757e-07  alpha:  3.907e-01  linmin: -2.384e-05  t[s]:  37385.75
	FillingsUpdate:  mu: -0.210012833  nElectrons: 330.000000
	SubspaceRotationAdjust: set factor to 0.0338
ElecMinimize: Iter:  27  F: -1802.270954087247219  |grad|_K:  1.479e-07  alpha:  4.501e-01  linmin: -2.763e-05  t[s]:  37644.61
	FillingsUpdate:  mu: -0.209996423  nElectrons: 330.000000
	SubspaceRotationAdjust: set factor to 0.0397
ElecMinimize: Iter:  28  F: -1802.270954521835392  |grad|_K:  1.520e-07  alpha:  6.311e-01  linmin: -1.005e-05  t[s]:  37906.24
	FillingsUpdate:  mu: -0.209971298  nElectrons: 330.000000
	SubspaceRotationAdjust: set factor to 0.043
ElecMinimize: Iter:  29  F: -1802.270954988074891  |grad|_K:  1.544e-07  alpha:  6.477e-01  linmin:  1.527e-06  t[s]:  38164.36
	FillingsUpdate:  mu: -0.209969029  nElectrons: 330.000000
	SubspaceRotationAdjust: set factor to 0.0353
ElecMinimize: Iter:  30  F: -1802.270955314631465  |grad|_K:  1.604e-07  alpha:  4.358e-01  linmin:  4.354e-07  t[s]:  38423.45
	FillingsUpdate:  mu: -0.209955938  nElectrons: 330.000000
	SubspaceRotationAdjust: set factor to 0.0285
ElecMinimize: Iter:  31  F: -1802.270955578855137  |grad|_K:  1.062e-07  alpha:  3.309e-01  linmin: -1.117e-05  t[s]:  38684.80
	FillingsUpdate:  mu: -0.209952553  nElectrons: 330.000000
	SubspaceRotationAdjust: set factor to 0.0335
ElecMinimize: Iter:  32  F: -1802.270955753034741  |grad|_K:  7.654e-08  alpha:  5.011e-01  linmin:  8.443e-05  t[s]:  38939.29
	FillingsUpdate:  mu: -0.209953609  nElectrons: 330.000000
	SubspaceRotationAdjust: set factor to 0.0361
ElecMinimize: Iter:  33  F: -1802.270955837592965  |grad|_K:  5.939e-08  alpha:  4.617e-01  linmin:  5.841e-05  t[s]:  39197.77
	FillingsUpdate:  mu: -0.209952048  nElectrons: 330.000000
	SubspaceRotationAdjust: set factor to 0.035
ElecMinimize: Iter:  34  F: -1802.270955880184601  |grad|_K:  5.077e-08  alpha:  4.090e-01  linmin:  3.031e-05  t[s]:  39458.20
	FillingsUpdate:  mu: -0.209955143  nElectrons: 330.000000
	SubspaceRotationAdjust: set factor to 0.0339
ElecMinimize: Iter:  35  F: -1802.270955917111905  |grad|_K:  4.774e-08  alpha:  4.960e-01  linmin:  2.739e-04  t[s]:  39714.47
	FillingsUpdate:  mu: -0.209952748  nElectrons: 330.000000
	SubspaceRotationAdjust: set factor to 0.0361
ElecMinimize: Iter:  36  F: -1802.270955952055829  |grad|_K:  4.434e-08  alpha:  5.213e-01  linmin:  1.235e-04  t[s]:  39974.15
	FillingsUpdate:  mu: -0.209951854  nElectrons: 330.000000
	SubspaceRotationAdjust: set factor to 0.0412
ElecMinimize: Iter:  37  F: -1802.270955984394050  |grad|_K:  3.514e-08  alpha:  5.458e-01  linmin: -1.365e-04  t[s]:  40232.17
	FillingsUpdate:  mu: -0.209950249  nElectrons: 330.000000
	SubspaceRotationAdjust: set factor to 0.0433
ElecMinimize: Iter:  38  F: -1802.270956008034091  |grad|_K:  3.238e-08  alpha:  5.917e-01  linmin: -1.028e-04  t[s]:  40489.47
	FillingsUpdate:  mu: -0.209945799  nElectrons: 330.000000
	SubspaceRotationAdjust: set factor to 0.0358
ElecMinimize: Iter:  39  F: -1802.270956020087851  |grad|_K:  2.908e-08  alpha:  3.525e-01  linmin: -6.912e-05  t[s]:  40750.34
	FillingsUpdate:  mu: -0.209944212  nElectrons: 330.000000
	SubspaceRotationAdjust: set factor to 0.032
ElecMinimize: Iter:  40  F: -1802.270956029982926  |grad|_K:  2.224e-08  alpha:  3.819e-01  linmin:  4.668e-05  t[s]:  41009.26
	FillingsUpdate:  mu: -0.209942011  nElectrons: 330.000000
	SubspaceRotationAdjust: set factor to 0.034
ElecMinimize: Iter:  41  F: -1802.270956038184522  |grad|_K:  2.578e-08  alpha:  7.097e-01  linmin:  5.154e-04  t[s]:  41268.06
ElecMinimize: Converged (|Delta F|<1.000000e-08 for 2 iters).
Setting wave functions to eigenvectors of Hamiltonian

# Ionic positions in lattice coordinates:
ion O   0.500000000000000   0.500000000000000   0.294374231540674 1
ion C   0.500000000000000   0.500000000000000   0.245160335937130 1
ion Pt   0.000000000000000   0.000000000000000  -0.166700000000000 0
ion Pt   0.500000000000000   0.500000000000000  -0.166700000000000 0
ion Pt   0.000000000000000   0.500000000000000  -0.166700000000000 0
ion Pt   0.500000000000000   0.000000000000000  -0.166700000000000 0
ion Pt   0.750000000000000   0.250000000000000  -0.083300000000000 0
ion Pt   0.250000000000000   0.750000000000000  -0.083300000000000 0
ion Pt   0.250000000000000   0.250000000000000  -0.083300000000000 0
ion Pt   0.750000000000000   0.750000000000000  -0.083300000000000 0
ion Pt   0.500000000000000   0.000000000000000   0.000011743844997 1
ion Pt   0.000000000000000   0.000000000000000  -0.000051212735553 1
ion Pt   0.000000000000000   0.500000000000000   0.000011743844997 1
ion Pt   0.500000000000000   0.500000000000000  -0.000001293401861 1
ion Pt   0.750032131934462   0.249967868065538   0.083326732249725 1
ion Pt   0.249967868065538   0.750032131934462   0.083326732249725 1
ion Pt   0.249967868065538   0.249967868065538   0.083326732249725 1
ion Pt   0.750032131934462   0.750032131934462   0.083326732249725 1
ion Pt   0.000000000000000   0.000000000000000   0.166644030150928 1
ion Pt   0.000000000000000   0.500000000000000   0.166600511387140 1
ion Pt   0.500000000000000   0.000000000000000   0.166600511387140 1
ion Pt   0.500000000000000   0.500000000000000   0.166925921858621 1


# Forces in Lattice coordinates:
force O   0.000000000000000  -0.000000000000000  -0.227559489341260 1
force C   0.000000000000000   0.000000000000000   0.182552400894973 1
force Pt   0.000000000000000  -0.000000000000000   0.341104371374104 0
force Pt   0.000000000000000   0.000000000000000   0.347804197137221 0
force Pt   0.000000000000000  -0.000000000000000   0.327207642561031 0
force Pt   0.000000000000000   0.000000000000000   0.327207642561031 0
force Pt  -0.001525370919875   0.001525370919875  -0.292976307848216 0
force Pt   0.001525370919875  -0.001525370919875  -0.292976307847307 0
force Pt   0.001525370919875   0.001525370919875  -0.292976307848216 0
force Pt  -0.001525370919875  -0.001525370919875  -0.292976307849126 0
force Pt   0.000000000000000   0.000000000000000   0.057877919136445 1
force Pt   0.000000000000000   0.000000000000000  -0.248532693366266 1
force Pt   0.000000000000000   0.000000000000000   0.057877919136616 1
force Pt   0.000000000000000   0.000000000000000   0.002310730725502 1
force Pt   0.007414755630674  -0.007414755630674   0.115886352698666 1
force Pt  -0.007414755630674   0.007414755630674   0.115886352698666 1
force Pt  -0.007414755630674  -0.007414755630674   0.115886352698666 1
force Pt   0.007414755630674   0.007414755630674   0.115886352699575 1
force Pt   0.000000000000000   0.000000000000000  -0.269418010812540 1
force Pt   0.000000000000000  -0.000000000000000  -0.475718999671281 1
force Pt   0.000000000000000   0.000000000000000  -0.475718999671281 1
force Pt   0.000000000000000   0.000000000000000   0.733111036102627 1

# Energy components:
   Eewald =   -21542.1784289861680008
       EH =   -20024.9700995928833436
     Eloc =    39449.4715277782379417
      Enl =      -18.0122173806144552
      Exc =     -571.4293900892854481
 Exc_core =      324.9288097739176919
       KE =      580.1521889647240187
-------------------------------------
     Etot =    -1802.0376095320750665
       TS =        0.2333465061093606
-------------------------------------
        F =    -1802.2709560381845222

IonicMinimize: Iter:   1  F: -1802.270956038184522  |grad|_K:  3.925e-03  alpha:  4.063e-01  linmin:  1.276e-02  t[s]:  41310.90

#--- Lowdin population analysis ---
# oxidation-state O -0.099
# oxidation-state C +0.510
# oxidation-state Pt +0.028 +0.028 +0.028 +0.028 -0.007 -0.007 -0.007 -0.007 +0.013 +0.003 +0.013 +0.013 -0.020 -0.020 -0.020 -0.020 +0.017 +0.002 +0.002 -0.160


-------- Electronic minimization -----------
	FillingsUpdate:  mu: -0.210054644  nElectrons: 330.000000
ElecMinimize: Iter:   0  F: -1802.271119593700860  |grad|_K:  8.995e-07  alpha:  1.000e+00
	FillingsUpdate:  mu: -0.209914508  nElectrons: 330.000000
	SubspaceRotationAdjust: set factor to 0.0277
ElecMinimize: Iter:   1  F: -1802.271127071792307  |grad|_K:  5.962e-07  alpha:  2.961e-01  linmin:  3.339e-06  t[s]:  41785.92
	FillingsUpdate:  mu: -0.209890730  nElectrons: 330.000000
	SubspaceRotationAdjust: set factor to 0.031
ElecMinimize: Iter:   2  F: -1802.271131036994120  |grad|_K:  4.015e-07  alpha:  3.573e-01  linmin: -7.734e-05  t[s]:  42044.56
	FillingsUpdate:  mu: -0.209955127  nElectrons: 330.000000
	SubspaceRotationAdjust: set factor to 0.0378
ElecMinimize: Iter:   3  F: -1802.271136005335620  |grad|_K:  5.268e-07  alpha:  9.880e-01  linmin:  5.809e-05  t[s]:  42299.40
	FillingsUpdate:  mu: -0.209929221  nElectrons: 330.000000
	SubspaceRotationAdjust: set factor to 0.0406
ElecMinimize: Iter:   4  F: -1802.271145749248035  |grad|_K:  8.095e-07  alpha:  1.127e+00  linmin:  3.636e-06  t[s]:  42553.63
	FillingsUpdate:  mu: -0.209985219  nElectrons: 330.000000
	SubspaceRotationAdjust: set factor to 0.0363
ElecMinimize: Iter:   5  F: -1802.271160064726473  |grad|_K:  1.077e-06  alpha:  7.002e-01  linmin:  6.525e-07  t[s]:  42809.04
	FillingsUpdate:  mu: -0.210008571  nElectrons: 330.000000
	SubspaceRotationAdjust: set factor to 0.0271
ElecMinimize: Iter:   6  F: -1802.271174005056082  |grad|_K:  9.214e-07  alpha:  3.852e-01  linmin: -9.278e-07  t[s]:  43068.19
	FillingsUpdate:  mu: -0.210126370  nElectrons: 330.000000
	SubspaceRotationAdjust: set factor to 0.0286
ElecMinimize: Iter:   7  F: -1802.271186738102415  |grad|_K:  6.147e-07  alpha:  4.806e-01  linmin:  1.625e-06  t[s]:  43324.69
	FillingsUpdate:  mu: -0.210141494  nElectrons: 330.000000
	SubspaceRotationAdjust: set factor to 0.0298
ElecMinimize: Iter:   8  F: -1802.271191715660962  |grad|_K:  4.259e-07  alpha:  4.222e-01  linmin:  7.995e-06  t[s]:  43583.03
	FillingsUpdate:  mu: -0.210133611  nElectrons: 330.000000
	SubspaceRotationAdjust: set factor to 0.029
ElecMinimize: Iter:   9  F: -1802.271193893499230  |grad|_K:  2.731e-07  alpha:  3.848e-01  linmin:  9.123e-06  t[s]:  43845.81
	FillingsUpdate:  mu: -0.210160674  nElectrons: 330.000000
	SubspaceRotationAdjust: set factor to 0.0295
ElecMinimize: Iter:  10  F: -1802.271194834975404  |grad|_K:  1.862e-07  alpha:  4.051e-01  linmin:  4.817e-05  t[s]:  44100.74
	FillingsUpdate:  mu: -0.210165227  nElectrons: 330.000000
	SubspaceRotationAdjust: set factor to 0.0348
ElecMinimize: Iter:  11  F: -1802.271195325166218  |grad|_K:  1.554e-07  alpha:  4.536e-01  linmin:  9.826e-06  t[s]:  44359.86
	FillingsUpdate:  mu: -0.210162657  nElectrons: 330.000000
	SubspaceRotationAdjust: set factor to 0.0431
ElecMinimize: Iter:  12  F: -1802.271195733376089  |grad|_K:  1.381e-07  alpha:  5.405e-01  linmin:  1.566e-05  t[s]:  44620.82
	FillingsUpdate:  mu: -0.210151651  nElectrons: 330.000000
	SubspaceRotationAdjust: set factor to 0.0463
ElecMinimize: Iter:  13  F: -1802.271196070586257  |grad|_K:  1.354e-07  alpha:  5.678e-01  linmin: -2.126e-05  t[s]:  44877.56
	FillingsUpdate:  mu: -0.210127513  nElectrons: 330.000000
	SubspaceRotationAdjust: set factor to 0.0367
ElecMinimize: Iter:  14  F: -1802.271196270463179  |grad|_K:  1.295e-07  alpha:  3.494e-01  linmin:  2.423e-05  t[s]:  45139.13
	FillingsUpdate:  mu: -0.210107931  nElectrons: 330.000000
	SubspaceRotationAdjust: set factor to 0.0332
ElecMinimize: Iter:  15  F: -1802.271196454639721  |grad|_K:  7.920e-08  alpha:  3.537e-01  linmin:  6.160e-05  t[s]:  45399.86
	FillingsUpdate:  mu: -0.210083434  nElectrons: 330.000000
	SubspaceRotationAdjust: set factor to 0.0411
ElecMinimize: Iter:  16  F: -1802.271196563703597  |grad|_K:  5.552e-08  alpha:  5.582e-01  linmin: -1.031e-04  t[s]:  45660.22
	FillingsUpdate:  mu: -0.210062286  nElectrons: 330.000000
	SubspaceRotationAdjust: set factor to 0.0467
ElecMinimize: Iter:  17  F: -1802.271196614823566  |grad|_K:  4.871e-08  alpha:  5.230e-01  linmin:  2.209e-04  t[s]:  45920.32
	FillingsUpdate:  mu: -0.210046996  nElectrons: 330.000000
	SubspaceRotationAdjust: set factor to 0.0438
ElecMinimize: Iter:  18  F: -1802.271196641795768  |grad|_K:  4.439e-08  alpha:  3.745e-01  linmin: -1.510e-04  t[s]:  46178.45
	FillingsUpdate:  mu: -0.210026688  nElectrons: 330.000000
	SubspaceRotationAdjust: set factor to 0.0407
ElecMinimize: Iter:  19  F: -1802.271196665873276  |grad|_K:  4.072e-08  alpha:  3.819e-01  linmin:  4.566e-05  t[s]:  46438.91
	FillingsUpdate:  mu: -0.210008371  nElectrons: 330.000000
	SubspaceRotationAdjust: set factor to 0.0419
ElecMinimize: Iter:  20  F: -1802.271196690646548  |grad|_K:  3.815e-08  alpha:  5.317e-01  linmin:  2.640e-04  t[s]:  46695.41
	FillingsUpdate:  mu: -0.209992330  nElectrons: 330.000000
	SubspaceRotationAdjust: set factor to 0.0445
ElecMinimize: Iter:  21  F: -1802.271196712876872  |grad|_K:  3.083e-08  alpha:  5.319e-01  linmin:  9.417e-05  t[s]:  46953.27
	FillingsUpdate:  mu: -0.209985321  nElectrons: 330.000000
	SubspaceRotationAdjust: set factor to 0.0459
ElecMinimize: Iter:  22  F: -1802.271196728599080  |grad|_K:  2.695e-08  alpha:  5.566e-01  linmin:  1.227e-04  t[s]:  47208.82
	FillingsUpdate:  mu: -0.209984229  nElectrons: 330.000000
	SubspaceRotationAdjust: set factor to 0.0415
ElecMinimize: Iter:  23  F: -1802.271196736389356  |grad|_K:  2.414e-08  alpha:  3.920e-01  linmin:  6.078e-05  t[s]:  47466.44
	FillingsUpdate:  mu: -0.209988805  nElectrons: 330.000000
	SubspaceRotationAdjust: set factor to 0.0353
ElecMinimize: Iter:  24  F: -1802.271196742829261  |grad|_K:  1.914e-08  alpha:  3.326e-01  linmin:  1.292e-04  t[s]:  47726.37
ElecMinimize: Converged (|Delta F|<1.000000e-08 for 2 iters).
Setting wave functions to eigenvectors of Hamiltonian
IonicMinimize: 	Wolfe criterion not satisfied: alpha: 1  (E-E0)/|gdotd0|: -0.961444  gdotd/gdotd0: 0.929372 (taking cubic step)

-------- Electronic minimization -----------
	FillingsUpdate:  mu: -0.210403314  nElectrons: 330.000000
ElecMinimize: Iter:   0  F: -1802.271308630482054  |grad|_K:  1.994e-06  alpha:  1.000e+00
	FillingsUpdate:  mu: -0.210213312  nElectrons: 330.000000
	SubspaceRotationAdjust: set factor to 0.0261
ElecMinimize: Iter:   1  F: -1802.271339306317486  |grad|_K:  1.227e-06  alpha:  2.472e-01  linmin: -2.351e-05  t[s]:  48249.70
	FillingsUpdate:  mu: -0.209863683  nElectrons: 330.000000
	SubspaceRotationAdjust: set factor to 0.0328
ElecMinimize: Iter:   2  F: -1802.271357598738632  |grad|_K:  7.863e-07  alpha:  3.894e-01  linmin:  6.879e-05  t[s]:  48510.33
	FillingsUpdate:  mu: -0.210063054  nElectrons: 330.000000
	SubspaceRotationAdjust: set factor to 0.0401
ElecMinimize: Iter:   3  F: -1802.271376573646648  |grad|_K:  1.031e-06  alpha:  9.839e-01  linmin:  8.022e-06  t[s]:  48771.52
	FillingsUpdate:  mu: -0.209982850  nElectrons: 330.000000
	SubspaceRotationAdjust: set factor to 0.0428
ElecMinimize: Iter:   4  F: -1802.271414138947421  |grad|_K:  1.630e-06  alpha:  1.133e+00  linmin: -3.104e-06  t[s]:  49027.19
	FillingsUpdate:  mu: -0.209709792  nElectrons: 330.000000
	SubspaceRotationAdjust: set factor to 0.0374
ElecMinimize: Iter:   5  F: -1802.271467381133107  |grad|_K:  2.214e-06  alpha:  6.418e-01  linmin: -1.955e-06  t[s]:  49282.22
	FillingsUpdate:  mu: -0.209950985  nElectrons: 330.000000
	SubspaceRotationAdjust: set factor to 0.0284
ElecMinimize: Iter:   6  F: -1802.271526033900727  |grad|_K:  1.848e-06  alpha:  3.834e-01  linmin:  2.213e-06  t[s]:  49543.96
	FillingsUpdate:  mu: -0.210175188  nElectrons: 330.000000
	SubspaceRotationAdjust: set factor to 0.0305
ElecMinimize: Iter:   7  F: -1802.271581069869399  |grad|_K:  1.274e-06  alpha:  5.165e-01  linmin:  8.163e-07  t[s]:  49804.82
	FillingsUpdate:  mu: -0.210149452  nElectrons: 330.000000
	SubspaceRotationAdjust: set factor to 0.031
ElecMinimize: Iter:   8  F: -1802.271602475417922  |grad|_K:  8.771e-07  alpha:  4.226e-01  linmin:  6.967e-07  t[s]:  50061.87
	FillingsUpdate:  mu: -0.210201374  nElectrons: 330.000000
	SubspaceRotationAdjust: set factor to 0.0286
ElecMinimize: Iter:   9  F: -1802.271611610908622  |grad|_K:  5.567e-07  alpha:  3.805e-01  linmin:  1.892e-06  t[s]:  50323.70
	FillingsUpdate:  mu: -0.210258502  nElectrons: 330.000000
	SubspaceRotationAdjust: set factor to 0.0267
ElecMinimize: Iter:  10  F: -1802.271615303699718  |grad|_K:  3.552e-07  alpha:  3.818e-01  linmin: -1.344e-05  t[s]:  50581.10
	FillingsUpdate:  mu: -0.210324821  nElectrons: 330.000000
	SubspaceRotationAdjust: set factor to 0.0309
ElecMinimize: Iter:  11  F: -1802.271616913318667  |grad|_K:  2.595e-07  alpha:  4.087e-01  linmin: -2.542e-05  t[s]:  50840.25
	FillingsUpdate:  mu: -0.210346456  nElectrons: 330.000000
	SubspaceRotationAdjust: set factor to 0.0393
ElecMinimize: Iter:  12  F: -1802.271617951356802  |grad|_K:  2.125e-07  alpha:  4.935e-01  linmin:  4.308e-06  t[s]:  51096.67
	FillingsUpdate:  mu: -0.210351483  nElectrons: 330.000000
	SubspaceRotationAdjust: set factor to 0.0406
ElecMinimize: Iter:  13  F: -1802.271618697766826  |grad|_K:  2.092e-07  alpha:  5.295e-01  linmin:  8.155e-06  t[s]:  51356.37
	FillingsUpdate:  mu: -0.210373717  nElectrons: 330.000000
	SubspaceRotationAdjust: set factor to 0.0353
ElecMinimize: Iter:  14  F: -1802.271619224493861  |grad|_K:  2.008e-07  alpha:  3.857e-01  linmin:  1.872e-06  t[s]:  51614.31
	FillingsUpdate:  mu: -0.210357973  nElectrons: 330.000000
	SubspaceRotationAdjust: set factor to 0.0383
ElecMinimize: Iter:  15  F: -1802.271619803475005  |grad|_K:  1.481e-07  alpha:  4.604e-01  linmin:  5.106e-05  t[s]:  51872.22
	FillingsUpdate:  mu: -0.210303613  nElectrons: 330.000000
	SubspaceRotationAdjust: set factor to 0.0471
ElecMinimize: Iter:  16  F: -1802.271620246274779  |grad|_K:  1.245e-07  alpha:  6.488e-01  linmin: -6.232e-05  t[s]:  52136.22
	FillingsUpdate:  mu: -0.210251678  nElectrons: 330.000000
	SubspaceRotationAdjust: set factor to 0.0448
ElecMinimize: Iter:  17  F: -1802.271620505258852  |grad|_K:  1.275e-07  alpha:  5.303e-01  linmin: -1.337e-05  t[s]:  52390.59
	FillingsUpdate:  mu: -0.210202899  nElectrons: 330.000000
	SubspaceRotationAdjust: set factor to 0.0356
ElecMinimize: Iter:  18  F: -1802.271620646250994  |grad|_K:  1.022e-07  alpha:  2.806e-01  linmin: -1.275e-05  t[s]:  52647.09
	FillingsUpdate:  mu: -0.210156523  nElectrons: 330.000000
	SubspaceRotationAdjust: set factor to 0.0392
ElecMinimize: Iter:  19  F: -1802.271620792269459  |grad|_K:  7.816e-08  alpha:  4.629e-01  linmin:  5.193e-04  t[s]:  52906.68
	FillingsUpdate:  mu: -0.210123764  nElectrons: 330.000000
	SubspaceRotationAdjust: set factor to 0.0475
ElecMinimize: Iter:  20  F: -1802.271620891820476  |grad|_K:  6.343e-08  alpha:  5.466e-01  linmin:  6.709e-05  t[s]:  53164.76
	FillingsUpdate:  mu: -0.210101148  nElectrons: 330.000000
	SubspaceRotationAdjust: set factor to 0.0494
ElecMinimize: Iter:  21  F: -1802.271620951954901  |grad|_K:  6.063e-08  alpha:  4.779e-01  linmin: -2.455e-04  t[s]:  53424.41
	FillingsUpdate:  mu: -0.210095852  nElectrons: 330.000000
	SubspaceRotationAdjust: set factor to 0.0421
ElecMinimize: Iter:  22  F: -1802.271620988260111  |grad|_K:  5.721e-08  alpha:  3.232e-01  linmin: -1.824e-04  t[s]:  53684.02
	FillingsUpdate:  mu: -0.210091724  nElectrons: 330.000000
	SubspaceRotationAdjust: set factor to 0.0393
ElecMinimize: Iter:  23  F: -1802.271621031860150  |grad|_K:  4.844e-08  alpha:  4.527e-01  linmin:  1.067e-03  t[s]:  53943.09
	FillingsUpdate:  mu: -0.210097640  nElectrons: 330.000000
	SubspaceRotationAdjust: set factor to 0.043
ElecMinimize: Iter:  24  F: -1802.271621062904160  |grad|_K:  3.635e-08  alpha:  4.862e-01  linmin: -1.665e-04  t[s]:  54197.68
	FillingsUpdate:  mu: -0.210105648  nElectrons: 330.000000
	SubspaceRotationAdjust: set factor to 0.0465
ElecMinimize: Iter:  25  F: -1802.271621086577397  |grad|_K:  3.401e-08  alpha:  5.657e-01  linmin:  4.317e-04  t[s]:  54456.16
	FillingsUpdate:  mu: -0.210118162  nElectrons: 330.000000
	SubspaceRotationAdjust: set factor to 0.0455
ElecMinimize: Iter:  26  F: -1802.271621100099992  |grad|_K:  3.064e-08  alpha:  4.273e-01  linmin: -4.456e-04  t[s]:  54713.57
	FillingsUpdate:  mu: -0.210128158  nElectrons: 330.000000
	SubspaceRotationAdjust: set factor to 0.0406
ElecMinimize: Iter:  27  F: -1802.271621111432523  |grad|_K:  2.857e-08  alpha:  3.785e-01  linmin:  2.600e-04  t[s]:  54973.06
	FillingsUpdate:  mu: -0.210142965  nElectrons: 330.000000
	SubspaceRotationAdjust: set factor to 0.0387
ElecMinimize: Iter:  28  F: -1802.271621121885346  |grad|_K:  2.521e-08  alpha:  4.405e-01  linmin:  2.403e-04  t[s]:  55230.37
	FillingsUpdate:  mu: -0.210154891  nElectrons: 330.000000
	SubspaceRotationAdjust: set factor to 0.0399
ElecMinimize: Iter:  29  F: -1802.271621131212896  |grad|_K:  2.269e-08  alpha:  5.338e-01  linmin:  3.102e-04  t[s]:  55487.14
	FillingsUpdate:  mu: -0.210163622  nElectrons: 330.000000
	SubspaceRotationAdjust: set factor to 0.0421
ElecMinimize: Iter:  30  F: -1802.271621138869477  |grad|_K:  1.892e-08  alpha:  4.754e-01  linmin: -1.332e-04  t[s]:  55745.71
ElecMinimize: Converged (|Delta F|<1.000000e-08 for 2 iters).
Setting wave functions to eigenvectors of Hamiltonian

# Ionic positions in lattice coordinates:
ion O   0.500000000000000   0.500000000000000   0.294325781999244 1
ion C   0.500000000000000   0.500000000000000   0.245172662245525 1
ion Pt   0.000000000000000   0.000000000000000  -0.166700000000000 0
ion Pt   0.500000000000000   0.500000000000000  -0.166700000000000 0
ion Pt   0.000000000000000   0.500000000000000  -0.166700000000000 0
ion Pt   0.500000000000000   0.000000000000000  -0.166700000000000 0
ion Pt   0.750000000000000   0.250000000000000  -0.083300000000000 0
ion Pt   0.250000000000000   0.750000000000000  -0.083300000000000 0
ion Pt   0.250000000000000   0.250000000000000  -0.083300000000000 0
ion Pt   0.750000000000000   0.750000000000000  -0.083300000000000 0
ion Pt   0.500000000000000   0.000000000000000   0.000047204985249 1
ion Pt   0.000000000000000   0.000000000000000  -0.000203574839461 1
ion Pt   0.000000000000000   0.500000000000000   0.000047204985249 1
ion Pt   0.500000000000000   0.500000000000000  -0.000000077691674 1
ion Pt   0.750114428922646   0.249885571077354   0.083398099803304 1
ion Pt   0.249885571077354   0.750114428922646   0.083398099803304 1
ion Pt   0.249885571077354   0.249885571077354   0.083398099803304 1
ion Pt   0.750114428922646   0.750114428922646   0.083398099803304 1
ion Pt   0.000000000000000   0.000000000000000   0.166478812898068 1
ion Pt   0.000000000000000   0.500000000000000   0.166308707569317 1
ion Pt   0.500000000000000   0.000000000000000   0.166308707569317 1
ion Pt   0.500000000000000   0.500000000000000   0.167383850587407 1


# Forces in Lattice coordinates:
force O   0.000000000000000   0.000000000000000  -0.062105966022266 1
force C   0.000000000000000   0.000000000000000   0.232375300736820 1
force Pt   0.000000000000000   0.000000000000000   0.341985717671452 0
force Pt   0.000000000000000   0.000000000000000   0.352074285972419 0
force Pt   0.000000000000000  -0.000000000000000   0.328487161050661 0
force Pt   0.000000000000000  -0.000000000000000   0.328487161057937 0
force Pt  -0.002373587516808   0.002373587516808  -0.292891000256860 0
force Pt   0.002373587516808  -0.002373587516808  -0.292891000256860 0
force Pt   0.002373587516808   0.002373587516808  -0.292891000256860 0
[...]
	FillingsUpdate:  mu: -0.173600000  nElectrons: 330.041309
	SubspaceRotationAdjust: set factor to 0.0094
ElecMinimize: Iter:   8  G: -1744.986461305787543  |grad|_K:  6.976e-07  alpha:  3.938e-01  linmin:  2.745e-06  t[s]:   7259.50
	FillingsUpdate:  mu: -0.173600000  nElectrons: 330.043437
	SubspaceRotationAdjust: set factor to 0.00936
ElecMinimize: Iter:   9  G: -1744.986466850989700  |grad|_K:  5.059e-07  alpha:  3.652e-01  linmin: -8.789e-06  t[s]:   7522.43
ElecMinimize: Converged (|Delta G|<6.869526e-06 for 2 iters).
Setting wave functions to eigenvectors of Hamiltonian

Electronic minimization # 2 changed total free energy by -1.710399e-05 at t[s]:   7534.24

---------------------- Fluid Minimization # 3 -----------------------
FluidMinimize: Iter:   0  G: -0.006732277118990  |grad|_K:  2.115e-04  alpha:  1.000e+00
FluidMinimize: 	Step increased G by 2.602085e-17, reducing alpha to 4.106487e-34.
FluidMinimize: 	Step increased G by 2.602085e-17, reducing alpha to 4.106487e-35.
FluidMinimize: 	Step increased G by 1.734723e-18, reducing alpha to 4.106487e-36.
FluidMinimize: 	Step increased G by 1.561251e-17, reducing alpha to 4.106487e-37.
FluidMinimize: 	Step increased G by 2.602085e-17, reducing alpha to 4.106487e-38.
FluidMinimize: 	Step increased G by 1.561251e-17, reducing alpha to 4.106487e-39.
FluidMinimize: 	Step failed to reduce G after 6 attempts. Quitting step.
FluidMinimize: 	Undoing step.
FluidMinimize: 	Step failed along negative gradient direction.
FluidMinimize: Probably at roundoff error limit. (Stopping)

Fluid minimization # 3 changed total free energy by 2.255141e-17 at t[s]:   7537.56

-------------------- Electronic Minimization # 3 ---------------------
	FillingsUpdate:  mu: -0.173600000  nElectrons: 329.766144
ElecMinimize: Iter:   0  G: -1744.936806732174091  |grad|_K:  1.003e-04  alpha:  1.000e+00
	FillingsUpdate:  mu: -0.173600000  nElectrons: 330.067959
	SubspaceRotationAdjust: set factor to 0.00373
ElecMinimize: Iter:   1  G: -1744.982794938541701  |grad|_K:  1.297e-05  alpha:  1.534e-01  linmin:  6.765e-02  t[s]:   7910.55
	FillingsUpdate:  mu: -0.173600000  nElectrons: 330.039787
	SubspaceRotationAdjust: set factor to 0.0039
ElecMinimize: Iter:   2  G: -1744.984567183713580  |grad|_K:  5.561e-06  alpha:  3.524e-01  linmin:  9.221e-04  t[s]:   8165.80
	FillingsUpdate:  mu: -0.173600000  nElectrons: 330.052937
	SubspaceRotationAdjust: set factor to 0.00472
ElecMinimize: Iter:   3  G: -1744.985124219399040  |grad|_K:  3.778e-06  alpha:  5.783e-01  linmin: -1.484e-04  t[s]:   8425.34
	FillingsUpdate:  mu: -0.173600000  nElectrons: 330.055707
	SubspaceRotationAdjust: set factor to 0.00571
ElecMinimize: Iter:   4  G: -1744.985402027121836  |grad|_K:  3.615e-06  alpha:  6.233e-01  linmin:  1.858e-06  t[s]:   8687.42
	FillingsUpdate:  mu: -0.173600000  nElectrons: 330.047634
	SubspaceRotationAdjust: set factor to 0.00624
ElecMinimize: Iter:   5  G: -1744.985727138074708  |grad|_K:  3.326e-06  alpha:  7.972e-01  linmin:  1.530e-04  t[s]:   8940.68
	FillingsUpdate:  mu: -0.173600000  nElectrons: 330.051173
	SubspaceRotationAdjust: set factor to 0.00667
ElecMinimize: Iter:   6  G: -1744.985950610197960  |grad|_K:  2.747e-06  alpha:  6.480e-01  linmin: -2.688e-05  t[s]:   9197.99
	FillingsUpdate:  mu: -0.173600000  nElectrons: 330.045409
	SubspaceRotationAdjust: set factor to 0.00762
ElecMinimize: Iter:   7  G: -1744.986083985377718  |grad|_K:  2.361e-06  alpha:  5.663e-01  linmin:  4.794e-05  t[s]:   9454.85
	FillingsUpdate:  mu: -0.173600000  nElectrons: 330.045883
	SubspaceRotationAdjust: set factor to 0.00948
ElecMinimize: Iter:   8  G: -1744.986194051802386  |grad|_K:  2.341e-06  alpha:  6.331e-01  linmin: -2.342e-05  t[s]:   9712.82
	FillingsUpdate:  mu: -0.173600000  nElectrons: 330.045095
	SubspaceRotationAdjust: set factor to 0.0113
ElecMinimize: Iter:   9  G: -1744.986305757099444  |grad|_K:  2.175e-06  alpha:  6.528e-01  linmin: -2.040e-05  t[s]:   9973.44
	FillingsUpdate:  mu: -0.173600000  nElectrons: 330.038179
	SubspaceRotationAdjust: set factor to 0.0104
ElecMinimize: Iter:  10  G: -1744.986388762269598  |grad|_K:  2.091e-06  alpha:  5.620e-01  linmin:  6.979e-05  t[s]:  10236.90
	FillingsUpdate:  mu: -0.173600000  nElectrons: 330.044039
	SubspaceRotationAdjust: set factor to 0.00652
ElecMinimize: Iter:  11  G: -1744.986428841954648  |grad|_K:  1.579e-06  alpha:  2.945e-01  linmin:  6.558e-05  t[s]:  10497.34
	FillingsUpdate:  mu: -0.173600000  nElectrons: 330.040499
	SubspaceRotationAdjust: set factor to 0.00591
ElecMinimize: Iter:  12  G: -1744.986456872067265  |grad|_K:  8.692e-07  alpha:  3.603e-01  linmin:  4.756e-05  t[s]:  10758.00
	FillingsUpdate:  mu: -0.173600000  nElectrons: 330.039919
	SubspaceRotationAdjust: set factor to 0.00668
ElecMinimize: Iter:  13  G: -1744.986466770466450  |grad|_K:  5.595e-07  alpha:  4.198e-01  linmin: -4.211e-05  t[s]:  11016.54
	FillingsUpdate:  mu: -0.173600000  nElectrons: 330.041052
	SubspaceRotationAdjust: set factor to 0.00621
ElecMinimize: Iter:  14  G: -1744.986470638634728  |grad|_K:  3.346e-07  alpha:  3.959e-01  linmin: -1.908e-05  t[s]:  11273.62
	FillingsUpdate:  mu: -0.173600000  nElectrons: 330.040497
	SubspaceRotationAdjust: set factor to 0.00752
ElecMinimize: Iter:  15  G: -1744.986472387081449  |grad|_K:  2.411e-07  alpha:  4.996e-01  linmin: -8.319e-05  t[s]:  11530.04
	FillingsUpdate:  mu: -0.173600000  nElectrons: 330.040742
	SubspaceRotationAdjust: set factor to 0.0097
ElecMinimize: Iter:  16  G: -1744.986473536680705  |grad|_K:  2.413e-07  alpha:  6.336e-01  linmin:  3.745e-05  t[s]:  11791.36
	FillingsUpdate:  mu: -0.173600000  nElectrons: 330.041167
	SubspaceRotationAdjust: set factor to 0.0115
ElecMinimize: Iter:  17  G: -1744.986474811825246  |grad|_K:  3.013e-07  alpha:  7.033e-01  linmin:  2.322e-05  t[s]:  12053.01
	FillingsUpdate:  mu: -0.173600000  nElectrons: 330.040405
	SubspaceRotationAdjust: set factor to 0.011
ElecMinimize: Iter:  18  G: -1744.986476615810261  |grad|_K:  4.015e-07  alpha:  6.366e-01  linmin: -8.620e-06  t[s]:  12308.21
	FillingsUpdate:  mu: -0.173600000  nElectrons: 330.042023
	SubspaceRotationAdjust: set factor to 0.00883
ElecMinimize: Iter:  19  G: -1744.986478878804746  |grad|_K:  4.222e-07  alpha:  4.494e-01  linmin: -6.149e-06  t[s]:  12566.12
	FillingsUpdate:  mu: -0.173600000  nElectrons: 330.041655
	SubspaceRotationAdjust: set factor to 0.00845
ElecMinimize: Iter:  20  G: -1744.986481667584712  |grad|_K:  3.763e-07  alpha:  5.011e-01  linmin:  2.642e-06  t[s]:  12823.74
	FillingsUpdate:  mu: -0.173600000  nElectrons: 330.041990
	SubspaceRotationAdjust: set factor to 0.0094
ElecMinimize: Iter:  21  G: -1744.986484047997010  |grad|_K:  2.955e-07  alpha:  5.383e-01  linmin: -4.918e-06  t[s]:  13082.39
	FillingsUpdate:  mu: -0.173600000  nElectrons: 330.042521
	SubspaceRotationAdjust: set factor to 0.0103
ElecMinimize: Iter:  22  G: -1744.986485371412300  |grad|_K:  2.231e-07  alpha:  4.859e-01  linmin: -3.198e-05  t[s]:  13339.54
	FillingsUpdate:  mu: -0.173600000  nElectrons: 330.042055
	SubspaceRotationAdjust: set factor to 0.00924
ElecMinimize: Iter:  23  G: -1744.986486011956913  |grad|_K:  1.951e-07  alpha:  4.118e-01  linmin:  4.520e-05  t[s]:  13601.14
	FillingsUpdate:  mu: -0.173600000  nElectrons: 330.042589
	SubspaceRotationAdjust: set factor to 0.00971
ElecMinimize: Iter:  24  G: -1744.986486485243631  |grad|_K:  1.646e-07  alpha:  3.981e-01  linmin: -2.773e-05  t[s]:  13860.33
	FillingsUpdate:  mu: -0.173600000  nElectrons: 330.042306
	SubspaceRotationAdjust: set factor to 0.0116
ElecMinimize: Iter:  25  G: -1744.986486966703296  |grad|_K:  1.616e-07  alpha:  5.653e-01  linmin: -9.093e-05  t[s]:  14118.00
	FillingsUpdate:  mu: -0.173600000  nElectrons: 330.042320
	SubspaceRotationAdjust: set factor to 0.0139
ElecMinimize: Iter:  26  G: -1744.986487483173278  |grad|_K:  1.756e-07  alpha:  6.303e-01  linmin:  9.267e-06  t[s]:  14374.41
	FillingsUpdate:  mu: -0.173600000  nElectrons: 330.042557
	SubspaceRotationAdjust: set factor to 0.0148
ElecMinimize: Iter:  27  G: -1744.986488090892635  |grad|_K:  1.951e-07  alpha:  6.322e-01  linmin: -1.541e-06  t[s]:  14630.78
	FillingsUpdate:  mu: -0.173600000  nElectrons: 330.041924
	SubspaceRotationAdjust: set factor to 0.0117
ElecMinimize: Iter:  28  G: -1744.986488474633688  |grad|_K:  2.085e-07  alpha:  3.227e-01  linmin: -8.674e-07  t[s]:  14885.41
	FillingsUpdate:  mu: -0.173600000  nElectrons: 330.042371
	SubspaceRotationAdjust: set factor to 0.00948
ElecMinimize: Iter:  29  G: -1744.986488847611326  |grad|_K:  1.407e-07  alpha:  2.758e-01  linmin:  5.771e-06  t[s]:  15139.75
	FillingsUpdate:  mu: -0.173600000  nElectrons: 330.042290
	SubspaceRotationAdjust: set factor to 0.0117
ElecMinimize: Iter:  30  G: -1744.986489136768114  |grad|_K:  1.043e-07  alpha:  4.716e-01  linmin:  1.638e-04  t[s]:  15399.12
	FillingsUpdate:  mu: -0.173600000  nElectrons: 330.042164
	SubspaceRotationAdjust: set factor to 0.0137
ElecMinimize: Iter:  31  G: -1744.986489282987804  |grad|_K:  8.152e-08  alpha:  4.338e-01  linmin: -4.420e-05  t[s]:  15657.62
	FillingsUpdate:  mu: -0.173600000  nElectrons: 330.042396
	SubspaceRotationAdjust: set factor to 0.0101
ElecMinimize: Iter:  32  G: -1744.986489360637279  |grad|_K:  8.264e-08  alpha:  3.662e-01  linmin: -7.336e-05  t[s]:  15915.77
ElecMinimize: Converged (|Delta G|<1.710399e-07 for 2 iters).
Setting wave functions to eigenvectors of Hamiltonian

Electronic minimization # 3 changed total free energy by -2.250965e-05 at t[s]:  15927.86

---------------------- Fluid Minimization # 4 -----------------------
FluidMinimize: Iter:   0  G: -0.006524311443951  |grad|_K:  2.053e-04  alpha:  1.000e+00
FluidMinimize: Iter:   1  G: -0.006524311443951  |grad|_K:  2.053e-04  alpha:  5.755e-32  linmin: -1.494e-01  cgtest:  1.000e+00  t[s]:  15928.84
FluidMinimize: Iter:   2  G: -0.006524311443951  |grad|_K:  2.053e-04  alpha:  5.755e-32  linmin: -1.494e-01  cgtest:  1.000e+00  t[s]:  15929.47
FluidMinimize: Encountered beta<0, resetting CG.
FluidMinimize: Iter:   3  G: -0.006524311443951  |grad|_K:  2.053e-04  alpha:  5.755e-32  linmin: -1.494e-01  cgtest:  1.000e+00  t[s]:  15930.09
FluidMinimize: Encountered beta<0, resetting CG.
FluidMinimize: 	Step increased G by 2.255141e-17, reducing alpha to 5.754684e-33.
FluidMinimize: 	Step increased G by 1.561251e-17, reducing alpha to 5.754684e-34.
FluidMinimize: 	Step increased G by 2.255141e-17, reducing alpha to 5.754684e-35.
FluidMinimize: 	Step increased G by 2.255141e-17, reducing alpha to 5.754684e-36.
FluidMinimize: 	Step increased G by 2.255141e-17, reducing alpha to 5.754684e-37.
FluidMinimize: 	Step increased G by 2.255141e-17, reducing alpha to 5.754684e-38.
FluidMinimize: 	Step failed to reduce G after 6 attempts. Quitting step.
FluidMinimize: 	Undoing step.
FluidMinimize: 	Step failed along negative gradient direction.
FluidMinimize: Probably at roundoff error limit. (Stopping)

Fluid minimization # 4 changed total free energy by 8.673617e-18 at t[s]:  15933.01

-------------------- Electronic Minimization # 4 ---------------------
	FillingsUpdate:  mu: -0.173600000  nElectrons: 329.950225
ElecMinimize: Iter:   0  G: -1744.981890544283942  |grad|_K:  3.282e-05  alpha:  1.000e+00
	FillingsUpdate:  mu: -0.173600000  nElectrons: 330.044253
	SubspaceRotationAdjust: set factor to 0.00403
ElecMinimize: Iter:   1  G: -1744.986417607122348  |grad|_K:  1.848e-06  alpha:  1.368e-01  linmin:  4.123e-02  t[s]:  16296.61
	FillingsUpdate:  mu: -0.173600000  nElectrons: 330.042888
	SubspaceRotationAdjust: set factor to 0.00436
ElecMinimize: Iter:   2  G: -1744.986450550515656  |grad|_K:  7.042e-07  alpha:  3.137e-01  linmin:  7.517e-05  t[s]:  16551.45
	FillingsUpdate:  mu: -0.173600000  nElectrons: 330.045071
	SubspaceRotationAdjust: set factor to 0.00549
ElecMinimize: Iter:   3  G: -1744.986458560991878  |grad|_K:  4.479e-07  alpha:  5.176e-01  linmin: -1.358e-04  t[s]:  16810.73
	FillingsUpdate:  mu: -0.173600000  nElectrons: 330.045453
	SubspaceRotationAdjust: set factor to 0.00692
ElecMinimize: Iter:   4  G: -1744.986462692175337  |grad|_K:  4.752e-07  alpha:  6.594e-01  linmin:  2.988e-05  t[s]:  17075.90
	FillingsUpdate:  mu: -0.173600000  nElectrons: 330.043344
	SubspaceRotationAdjust: set factor to 0.00682
ElecMinimize: Iter:   5  G: -1744.986468990074172  |grad|_K:  5.492e-07  alpha:  8.936e-01  linmin: -2.669e-06  t[s]:  17335.49
	FillingsUpdate:  mu: -0.173600000  nElectrons: 330.044682
	SubspaceRotationAdjust: set factor to 0.00591
ElecMinimize: Iter:   6  G: -1744.986475324376670  |grad|_K:  5.553e-07  alpha:  6.729e-01  linmin: -8.235e-06  t[s]:  17594.32
	FillingsUpdate:  mu: -0.173600000  nElectrons: 330.043442
	SubspaceRotationAdjust: set factor to 0.00649
ElecMinimize: Iter:   7  G: -1744.986480662131498  |grad|_K:  4.400e-07  alpha:  5.544e-01  linmin:  1.488e-05  t[s]:  17852.75
	FillingsUpdate:  mu: -0.173600000  nElectrons: 330.042801
	SubspaceRotationAdjust: set factor to 0.008
ElecMinimize: Iter:   8  G: -1744.986484203363034  |grad|_K:  3.271e-07  alpha:  5.862e-01  linmin:  1.795e-05  t[s]:  18109.89
	FillingsUpdate:  mu: -0.173600000  nElectrons: 330.043181
	SubspaceRotationAdjust: set factor to 0.00893
ElecMinimize: Iter:   9  G: -1744.986486083120099  |grad|_K:  2.727e-07  alpha:  5.630e-01  linmin: -1.505e-05  t[s]:  18370.64
	FillingsUpdate:  mu: -0.173600000  nElectrons: 330.042331
	SubspaceRotationAdjust: set factor to 0.00814
ElecMinimize: Iter:  10  G: -1744.986487300949420  |grad|_K:  2.388e-07  alpha:  5.240e-01  linmin: -2.663e-05  t[s]:  18633.75
	FillingsUpdate:  mu: -0.173600000  nElectrons: 330.042974
	SubspaceRotationAdjust: set factor to 0.00623
ElecMinimize: Iter:  11  G: -1744.986488020145316  |grad|_K:  1.763e-07  alpha:  4.039e-01  linmin: -6.713e-05  t[s]:  18894.93
	FillingsUpdate:  mu: -0.173600000  nElectrons: 330.042559
	SubspaceRotationAdjust: set factor to 0.00627
ElecMinimize: Iter:  12  G: -1744.986488536249226  |grad|_K:  1.142e-07  alpha:  5.325e-01  linmin: -7.574e-05  t[s]:  19153.10
	FillingsUpdate:  mu: -0.173600000  nElectrons: 330.042572
	SubspaceRotationAdjust: set factor to 0.00771
ElecMinimize: Iter:  13  G: -1744.986488761782539  |grad|_K:  8.869e-08  alpha:  5.567e-01  linmin:  4.232e-04  t[s]:  19412.48
	FillingsUpdate:  mu: -0.173600000  nElectrons: 330.042688
	SubspaceRotationAdjust: set factor to 0.00901
ElecMinimize: Iter:  14  G: -1744.986488886012012  |grad|_K:  7.448e-08  alpha:  5.049e-01  linmin:  8.743e-05  t[s]:  19675.79
	FillingsUpdate:  mu: -0.173600000  nElectrons: 330.042528
	SubspaceRotationAdjust: set factor to 0.0103
ElecMinimize: Iter:  15  G: -1744.986489010747846  |grad|_K:  8.744e-08  alpha:  7.253e-01  linmin: -1.948e-04  t[s]:  19929.10
ElecMinimize: Converged (|Delta G|<2.250965e-07 for 2 iters).
Setting wave functions to eigenvectors of Hamiltonian

Electronic minimization # 4 changed total free energy by 3.498894e-07 at t[s]:  19939.91

Fluid<-->Electron self-consistency loop converged to 1.000000e-05 hartrees after 4 minimization pairs at t[s]:  19939.91.

# Ionic positions in lattice coordinates:
ion O   0.500000000000000   0.500000000000000   0.297725061116489 1
ion C   0.500000000000000   0.500000000000000   0.248650602189231 1
ion Pt   0.000000000000000   0.000000000000000  -0.166700000000000 0
ion Pt   0.500000000000000   0.500000000000000  -0.166700000000000 0
ion Pt   0.000000000000000   0.500000000000000  -0.166700000000000 0
ion Pt   0.500000000000000   0.000000000000000  -0.166700000000000 0
ion Pt   0.750000000000000   0.250000000000000  -0.083300000000000 0
ion Pt   0.250000000000000   0.750000000000000  -0.083300000000000 0
ion Pt   0.250000000000000   0.250000000000000  -0.083300000000000 0
ion Pt   0.750000000000000   0.750000000000000  -0.083300000000000 0
ion Pt   0.500000000000000   0.000000000000000   0.000248945478794 1
ion Pt   0.000000000000000   0.000000000000000  -0.001623265635983 1
ion Pt   0.000000000000000   0.500000000000000   0.000248945478794 1
ion Pt   0.500000000000000   0.500000000000000  -0.000005850471840 1
ion Pt   0.748978989447437   0.251021010552563   0.082697169826353 1
ion Pt   0.251021010552563   0.748978989447437   0.082697169826353 1
ion Pt   0.251021010552563   0.251021010552563   0.082697169826353 1
ion Pt   0.748978989447437   0.748978989447437   0.082697169826353 1
ion Pt   0.000000000000000   0.000000000000000   0.164024439230836 1
ion Pt   0.000000000000000   0.500000000000000   0.162380226861314 1
ion Pt   0.500000000000000   0.000000000000000   0.162380226861314 1
ion Pt   0.500000000000000   0.500000000000000   0.171335121304972 1


# Forces in Lattice coordinates:
force O   0.000000000000000   0.000000000000000   0.253062464972274 1
force C   0.000000000000000   0.000000000000000  -0.083111689321212 1
force Pt   0.000000000000000   0.000000000000000   0.314674956940817 0
force Pt   0.000000000000000   0.000000000000000   0.363865654357296 0
force Pt   0.000000000000000   0.000000000000000   0.320189172081072 0
force Pt   0.000000000000000   0.000000000000000   0.320189172081073 0
force Pt  -0.010889868701860   0.010889868701860  -0.335927425386480 0
force Pt   0.010889868701860  -0.010889868701860  -0.335927425385570 0
force Pt   0.010889868701860   0.010889868701860  -0.335927425386480 0
force Pt  -0.010889868701860  -0.010889868701860  -0.335927425387389 0
force Pt   0.000000000000000   0.000000000000000  -0.098888039882103 1
force Pt   0.000000000000000  -0.000000000000000   0.040467408755680 1
force Pt   0.000000000000000   0.000000000000000  -0.098888039882103 1
force Pt   0.000000000000000   0.000000000000000  -0.104456877974067 1
force Pt  -0.000959299025591   0.000959299025591   0.018869558916231 1
force Pt   0.000959299025591  -0.000959299025591   0.018869558916686 1
force Pt   0.000959299025591   0.000959299025591   0.018869558916231 1
force Pt  -0.000959299025591  -0.000959299025591   0.018869558916231 1
force Pt   0.000000000000000  -0.000000000000000  -0.050163639106339 1
force Pt   0.000000000000000   0.000000000000000   0.061991813292159 1
force Pt   0.000000000000000   0.000000000000000   0.061991813292159 1
force Pt   0.000000000000000  -0.000000000000000  -0.055309105913913 1

# Energy components:
   A_diel =       -0.0065525056293087
   Eewald =    26829.2553613435266016
       EH =    28423.1416195103738573
     Eloc =   -57370.1265477453707717
      Enl =      -17.9637370265926606
      Exc =     -571.4977512651503275
 Exc_core =      324.9288202902804983
       KE =      580.2185468114823834
  MuShift =       -0.0014264668776892
-------------------------------------
     Etot =    -1802.0516670539591360
       TS =        0.2302048247430513
-------------------------------------
        F =    -1802.2818718787020771
      muN =      -57.2953828679541175
-------------------------------------
        G =    -1744.9864890107478459

IonicMinimize: Iter:   0  G: -1744.986489010747846  |grad|_K:  1.192e-03  t[s]:  19972.03
IonicMinimize: None of the convergence criteria satisfied after 0 iterations.

#--- Lowdin population analysis ---
# oxidation-state O -0.121
# oxidation-state C +0.517
# oxidation-state Pt +0.016 +0.017 +0.016 +0.016 -0.008 -0.008 -0.008 -0.008 +0.014 +0.010 +0.014 +0.015 -0.022 -0.022 -0.022 -0.022 +0.028 -0.005 -0.005 -0.135


Dumping '100_3-Solvated.ionpos' ... done
Dumping '100_3-Solvated.n' ... done
Dumping '100_3-Solvated.eigStats' ... 
	eMin: -2.148215 at state 0 ( [ +0.000000 +0.000000 +0.000000 ] spin 0 )
	HOMO: -0.173922 at state 2 ( [ +0.000000 +0.500000 +0.000000 ] spin 0 )
	mu  : -0.173600
	LUMO: -0.172837 at state 1 ( [ +0.000000 +0.250000 +0.000000 ] spin 0 )
	eMax: +0.351411 at state 2 ( [ +0.000000 +0.500000 +0.000000 ] spin 0 )
	HOMO-LUMO gap: +0.001084
	Optical gap  : +0.001321 at state 1 ( [ +0.000000 +0.250000 +0.000000 ] spin 0 )
Dumping '100_3-Solvated.Ecomponents' ... done
End date and time: Thu Apr 25 21:11:37 2019  (Duration: 0-5:33:28.47)
Done!
