
*************** JDFTx 1.4.2  ***************

Start date and time: Thu Jun 13 14:54:05 2019
Executable jdftx with command-line: -i Vacuum.in
Running on hosts (process indices):  dhcp-ccc-1825.eduroam.cornell.edu (0)
Divided in process groups (process indices):  0 (0)
Resource initialization completed at t[s]:      0.00
Run totals: 1 processes, 12 threads, 0 GPUs


Input parsed successfully to the following command list (including defaults):

basis kpoint-dependent
coords-type Lattice
core-overlap-check vector
coulomb-interaction Periodic
davidson-band-ratio 1.1
dump End State IonicPositions ElecDensity EigStats Ecomponents
dump-name 100_1-Vacuum.$VAR
elec-cutoff 20 100
elec-eigen-algo Davidson
elec-ex-corr gga-PBEsol
elec-smearing Fermi 0.01
electronic-minimize  \
	dirUpdateScheme      FletcherReeves \
	linminMethod         DirUpdateRecommended \
	nIterations          200 \
	history              15 \
	knormThreshold       0 \
	energyDiffThreshold  1e-08 \
	nEnergyDiff          2 \
	alphaTstart          1 \
	alphaTmin            1e-10 \
	updateTestStepSize   yes \
	alphaTreduceFactor   0.1 \
	alphaTincreaseFactor 3 \
	nAlphaAdjustMax      3 \
	wolfeEnergy          0.0001 \
	wolfeGradient        0.9 \
	fdTest               no
exchange-regularization WignerSeitzTruncated
fluid None
fluid-ex-corr lda-TF lda-PZ
fluid-gummel-loop 10 1.000000e-05
fluid-minimize  \
	dirUpdateScheme      PolakRibiere \
	linminMethod         DirUpdateRecommended \
	nIterations          100 \
	history              15 \
	knormThreshold       0 \
	energyDiffThreshold  0 \
	nEnergyDiff          2 \
	alphaTstart          1 \
	alphaTmin            1e-10 \
	updateTestStepSize   yes \
	alphaTreduceFactor   0.1 \
	alphaTincreaseFactor 3 \
	nAlphaAdjustMax      3 \
	wolfeEnergy          0.0001 \
	wolfeGradient        0.9 \
	fdTest               no
fluid-solvent H2O 55.338 ScalarEOS \
	epsBulk 78.4 \
	pMol 0.92466 \
	epsInf 1.77 \
	Pvap 1.06736e-10 \
	sigmaBulk 4.62e-05 \
	Rvdw 2.61727 \
	Res 1.42
forces-output-coords Positions
ion Pt   0.000000000000000   0.000000000000000  -0.166660000000000 0
ion Pt   0.000000000000000   0.500000000000000  -0.166660000000000 0
ion Pt   0.500000000000000   0.000000000000000  -0.166660000000000 0
ion Pt   0.500000000000000   0.500000000000000  -0.166660000000000 0
ion Pt   0.250000000000000   0.250000000000000  -0.083330000000000 0
ion Pt   0.250000000000000   0.750000000000000  -0.083330000000000 0
ion Pt   0.750000000000000   0.250000000000000  -0.083330000000000 0
ion Pt   0.750000000000000   0.750000000000000  -0.083330000000000 0
ion Pt   0.000000000000000   0.000000000000000   0.000000000000000 0
ion Pt   0.000000000000000   0.500000000000000   0.000000000000000 0
ion Pt   0.500000000000000   0.000000000000000   0.000000000000000 0
ion Pt   0.500000000000000   0.500000000000000   0.000000000000000 0
ion Pt   0.250000000000000   0.250000000000000   0.083330000000000 0
ion Pt   0.250000000000000   0.750000000000000   0.083330000000000 0
ion Pt   0.750000000000000   0.250000000000000   0.083330000000000 0
ion Pt   0.750000000000000   0.750000000000000   0.083330000000000 0
ion Pt   0.000000000000000   0.000000000000000   0.166660000000000 0
ion Pt   0.000000000000000   0.500000000000000   0.166660000000000 0
ion Pt   0.500000000000000   0.000000000000000   0.166660000000000 0
ion Pt   0.500000000000000   0.500000000000000   0.166660000000000 0
ion-species GBRV/$ID_pbesol.uspp
ion-width 0
ionic-minimize  \
	dirUpdateScheme      L-BFGS \
	linminMethod         DirUpdateRecommended \
	nIterations          8 \
	history              15 \
	knormThreshold       0.0001 \
	energyDiffThreshold  1e-06 \
	nEnergyDiff          2 \
	alphaTstart          1 \
	alphaTmin            1e-10 \
	updateTestStepSize   yes \
	alphaTreduceFactor   0.1 \
	alphaTincreaseFactor 3 \
	nAlphaAdjustMax      3 \
	wolfeEnergy          0.0001 \
	wolfeGradient        0.9 \
	fdTest               no
kpoint   0.000000000000   0.000000000000   0.000000000000  1.00000000000000
kpoint-folding 4 4 1 
latt-move-scale 1 1 1
latt-scale 1 1 1 
lattice Triclinic 15.0309 10.6282 31.8847 90 90 90
lattice-minimize  \
	dirUpdateScheme      L-BFGS \
	linminMethod         DirUpdateRecommended \
	nIterations          0 \
	history              15 \
	knormThreshold       0 \
	energyDiffThreshold  1e-06 \
	nEnergyDiff          2 \
	alphaTstart          1 \
	alphaTmin            1e-10 \
	updateTestStepSize   yes \
	alphaTreduceFactor   0.1 \
	alphaTincreaseFactor 3 \
	nAlphaAdjustMax      3 \
	wolfeEnergy          0.0001 \
	wolfeGradient        0.9 \
	fdTest               no
lcao-params -1 1e-06 0.01
pcm-variant GLSSA13
spintype no-spin
subspace-rotation-factor 1 yes
symmetries automatic
symmetry-threshold 0.0001



---------- Setting up symmetries ----------

Found 8 point-group symmetries of the bravais lattice
Found 32 space-group symmetries with basis
Applied RMS atom displacement 0 bohrs to make symmetries exact.

---------- Initializing the Grid ----------
R = 
[    15.0309          0          0  ]
[          0    10.6282          0  ]
[          0          0    31.8847  ]
unit cell volume = 5093.63
G =
[   0.418018          0          0  ]
[          0   0.591179          0  ]
[          0          0    0.19706  ]
Minimum fftbox size, Smin = [  68  48  144  ]
Chosen fftbox size, S = [  70  48  144  ]

---------- Initializing tighter grid for wavefunction operations ----------
R = 
[    15.0309          0          0  ]
[          0    10.6282          0  ]
[          0          0    31.8847  ]
unit cell volume = 5093.63
G =
[   0.418018          0          0  ]
[          0   0.591179          0  ]
[          0          0    0.19706  ]
Minimum fftbox size, Smin = [  64  44  132  ]
Chosen fftbox size, S = [  64  48  140  ]

---------- Exchange Correlation functional ----------
Initalized PBEsol GGA exchange.
Initalized PBEsol GGA correlation.

---------- Setting up pseudopotentials ----------
Width of ionic core gaussian charges (only for fluid interactions / plotting) set to 0

Reading pseudopotential file '/Users/juanmendezvalderrama/Documents/JDFTX/build/pseudopotentials/GBRV/pt_pbesol.uspp':
  Title: Pt.  Created by USPP 7.3.6 on 22-9-15
  Reference state energy: -104.899005.  16 valence electrons in orbitals:
    |510>  occupation: 6  eigenvalue: -2.158847
    |520>  occupation: 9.5  eigenvalue: -0.336311
    |600>  occupation: 0  eigenvalue: -0.320324
    |610>  occupation: 0  eigenvalue: -0.119800
  lMax: 2  lLocal: 3  QijEcut: 5.5
  6 projectors sampled on a log grid with 745 points:
    l: 0  eig: -0.320324  rCut: 2.45
    l: 0  eig: 1.500000  rCut: 2.45
    l: 1  eig: -2.158847  rCut: 1.6
    l: 1  eig: -0.119800  rCut: 1.6
    l: 2  eig: -0.500000  rCut: 1.6
    l: 2  eig: -0.336311  rCut: 1.6
  Partial core density with radius 1.1
  Transforming core density to a uniform radial grid of dG=0.02 with 1247 points.
  Transforming local potential to a uniform radial grid of dG=0.02 with 1247 points.
  Transforming nonlocal projectors to a uniform radial grid of dG=0.02 with 432 points.
  Transforming density augmentations to a uniform radial grid of dG=0.02 with 1247 points.
  Transforming atomic orbitals to a uniform radial grid of dG=0.02 with 432 points.
  Core radius for overlap checks: 2.45 bohrs.

Initialized 1 species with 20 total atoms.

Folded 1 k-points by 4x4x1 to 16 k-points.

---------- Setting up k-points, bands, fillings ----------
Reduced to 9 k-points under symmetry. 
Computing the number of bands and number of electrons
Calculating initial fillings.
nElectrons: 320.000000   nBands: 240   nStates: 9

----- Setting up reduced wavefunction bases (one per k-point) -----
average nbasis = 21760.562 , ideal nbasis = 21760.388

---------- Setting up ewald sum ----------
Optimum gaussian width for ewald sums = 4.166272 bohr.
Real space sum over 693 unit cells with max indices [  4  5  3  ]
Reciprocal space sum over 4455 terms with max indices [  7  5  13  ]

---------- Allocating electronic variables ----------
Initializing wave functions:  linear combination of atomic orbitals
Pt pseudo-atom occupations:   s ( 0 )  p ( 6 0 )  d ( 10 )
	FillingsUpdate:  mu: -0.200332984  nElectrons: 320.000000
LCAOMinimize: Iter:   0  F: -1772.2800174712986063  |grad|_K:  1.985e-02  alpha:  1.000e+00
LCAOMinimize: 	Step increased F by 2.209432e+01, reducing alpha to 2.302058e-02.
	FillingsUpdate:  mu: -0.142071783  nElectrons: 320.000000
LCAOMinimize: Iter:   1  F: -1776.2044815312715400  |grad|_K:  1.209e-02  alpha:  2.302e-02  linmin: -3.599e-01  cgtest:  9.401e-01  t[s]:    106.87
LCAOMinimize: Encountered beta<0, resetting CG.
	FillingsUpdate:  mu: +0.114217801  nElectrons: 320.000000
LCAOMinimize: Iter:   2  F: -1778.4190645871235574  |grad|_K:  5.202e-03  alpha:  6.041e-02  linmin:  4.565e-02  cgtest: -1.045e-01  t[s]:    137.56
	FillingsUpdate:  mu: +0.182233478  nElectrons: 320.000000
LCAOMinimize: Iter:   3  F: -1779.7134142769509708  |grad|_K:  1.647e-03  alpha:  1.782e-01  linmin: -1.785e-01  cgtest:  5.798e-01  t[s]:    168.14
LCAOMinimize: Encountered beta<0, resetting CG.
	FillingsUpdate:  mu: +0.165112047  nElectrons: 320.000000
LCAOMinimize: Iter:   4  F: -1779.8735765069895933  |grad|_K:  1.712e-03  alpha:  2.284e-01  linmin:  9.071e-03  cgtest: -2.249e-02  t[s]:    198.70
	FillingsUpdate:  mu: +0.221243709  nElectrons: 320.000000
LCAOMinimize: Iter:   5  F: -1779.9697171114860339  |grad|_K:  1.218e-03  alpha:  1.356e-01  linmin:  2.719e-03  cgtest:  4.872e-02  t[s]:    229.27
	FillingsUpdate:  mu: +0.203474386  nElectrons: 320.000000
LCAOMinimize: Iter:   6  F: -1780.0232560235601795  |grad|_K:  2.009e-04  alpha:  1.396e-01  linmin:  3.057e-02  cgtest: -2.284e-01  t[s]:    259.94
	FillingsUpdate:  mu: +0.205584077  nElectrons: 320.000000
LCAOMinimize: Iter:   7  F: -1780.0243818614978863  |grad|_K:  1.466e-04  alpha:  1.139e-01  linmin:  8.558e-04  cgtest:  5.768e-02  t[s]:    290.57
	FillingsUpdate:  mu: +0.197547462  nElectrons: 320.000000
LCAOMinimize: Iter:   8  F: -1780.0253655727910882  |grad|_K:  5.501e-05  alpha:  1.773e-01  linmin:  1.711e-02  cgtest: -1.528e-01  t[s]:    321.17
	FillingsUpdate:  mu: +0.197716436  nElectrons: 320.000000
LCAOMinimize: Iter:   9  F: -1780.0254348704991116  |grad|_K:  2.606e-05  alpha:  9.072e-02  linmin:  4.904e-04  cgtest:  8.434e-02  t[s]:    351.67
	FillingsUpdate:  mu: +0.196705046  nElectrons: 320.000000
LCAOMinimize: Iter:  10  F: -1780.0254733988867883  |grad|_K:  2.637e-05  alpha:  2.175e-01  linmin:  4.724e-04  cgtest: -1.213e-02  t[s]:    382.48
	FillingsUpdate:  mu: +0.197221207  nElectrons: 320.000000
LCAOMinimize: Iter:  11  F: -1780.0255053442306235  |grad|_K:  1.800e-05  alpha:  1.762e-01  linmin:  4.520e-05  cgtest:  4.432e-03  t[s]:    413.23
	FillingsUpdate:  mu: +0.197022467  nElectrons: 320.000000
LCAOMinimize: Iter:  12  F: -1780.0255135469337802  |grad|_K:  4.809e-06  alpha:  9.687e-02  linmin: -1.820e-04  cgtest: -9.692e-04  t[s]:    443.67
	FillingsUpdate:  mu: +0.197218693  nElectrons: 320.000000
LCAOMinimize: Iter:  13  F: -1780.0255143233043782  |grad|_K:  3.371e-06  alpha:  1.284e-01  linmin: -6.903e-05  cgtest: -2.039e-04  t[s]:    474.03
	FillingsUpdate:  mu: +0.197248010  nElectrons: 320.000000
LCAOMinimize: Iter:  14  F: -1780.0255147885909537  |grad|_K:  2.242e-06  alpha:  1.566e-01  linmin: -8.184e-05  cgtest: -1.329e-04  t[s]:    504.37
LCAOMinimize: Converged (|Delta F|<1.000000e-06 for 2 iters).


---- Citations for features of the code used in this run ----

   Software package:
      R. Sundararaman, K. Letchworth-Weaver, K.A. Schwarz, D. Gunceler, Y. Ozhabes and T.A. Arias, 'JDFTx: software for joint density-functional theory', SoftwareX 6, 278 (2017)

   gga-PBEsol exchange-correlation functional:
      J.P. Perdew et al., Phys. Rev. Lett. 100, 136406 (2008)

   Pseudopotentials:
      KF Garrity, JW Bennett, KM Rabe and D Vanderbilt, Comput. Mater. Sci. 81, 446 (2014)

   Total energy minimization with Auxiliary Hamiltonian:
      C. Freysoldt, S. Boeck, and J. Neugebauer, Phys. Rev. B 79, 241103(R) (2009)

This list may not be complete. Please suggest additional citations or
report any other bugs at https://github.com/shankar1729/jdftx/issues

Initialization completed successfully at t[s]:    515.20


-------- Electronic minimization -----------
	FillingsUpdate:  mu: +0.197248010  nElectrons: 320.000000
ElecMinimize: Iter:   0  F: -1780.025514788589362  |grad|_K:  9.948e-05  alpha:  1.000e+00
	FillingsUpdate:  mu: +0.222447848  nElectrons: 320.000000
	SubspaceRotationAdjust: set factor to 0.999
ElecMinimize: Iter:   1  F: -1780.222087833560408  |grad|_K:  5.627e-05  alpha:  4.226e-01  linmin:  2.581e-05  t[s]:    624.79
	FillingsUpdate:  mu: +0.196198930  nElectrons: 320.000000
	SubspaceRotationAdjust: set factor to 0.606
ElecMinimize: Iter:   2  F: -1780.262398191296825  |grad|_K:  6.951e-05  alpha:  2.675e-01  linmin: -7.153e-06  t[s]:    692.56
