
*************** JDFTx 1.4.2  ***************

Start date and time: Thu Jun 13 14:42:00 2019
Executable jdftx with command-line: -i Solvated.in
Running on hosts (process indices):  dhcp-ccc-1825.eduroam.cornell.edu (0)
Divided in process groups (process indices):  0 (0)
Resource initialization completed at t[s]:      0.00
Run totals: 1 processes, 12 threads, 0 GPUs


Input parsed successfully to the following command list (including defaults):

basis kpoint-dependent
coords-type Lattice
core-overlap-check vector
coulomb-interaction Periodic
davidson-band-ratio 1.1
dump End IonicPositions ElecDensity EigStats Ecomponents
dump-name 100_0-Solvated.$VAR
elec-cutoff 20 100
elec-eigen-algo Davidson
elec-ex-corr gga-PBEsol
elec-smearing Fermi 0.01
electronic-minimize  \
	dirUpdateScheme      FletcherReeves \
	linminMethod         DirUpdateRecommended \
	nIterations          200 \
	history              15 \
	knormThreshold       0 \
	energyDiffThreshold  1e-08 \
	nEnergyDiff          2 \
	alphaTstart          1 \
	alphaTmin            1e-10 \
	updateTestStepSize   yes \
	alphaTreduceFactor   0.1 \
	alphaTincreaseFactor 3 \
	nAlphaAdjustMax      3 \
	wolfeEnergy          0.0001 \
	wolfeGradient        0.9 \
	fdTest               no
exchange-regularization WignerSeitzTruncated
fluid NonlinearPCM 298.000000 1.013250
fluid-anion ClO4- 0.2 MeanFieldLJ \
	epsBulk 1 \
	pMol 0 \
	epsInf 1 \
	Pvap 0 \
	sigmaBulk 0 \
	Rvdw 4.55424 \
	Res 0
fluid-cation Na+ 0.2 MeanFieldLJ \
	epsBulk 1 \
	pMol 0 \
	epsInf 1 \
	Pvap 0 \
	sigmaBulk 0 \
	Rvdw 2.19208 \
	Res 0
fluid-ex-corr lda-TF lda-PZ
fluid-gummel-loop 10 1.000000e-05
fluid-minimize  \
	dirUpdateScheme      PolakRibiere \
	linminMethod         DirUpdateRecommended \
	nIterations          100 \
	history              15 \
	knormThreshold       1e-11 \
	energyDiffThreshold  0 \
	nEnergyDiff          2 \
	alphaTstart          1 \
	alphaTmin            1e-10 \
	updateTestStepSize   yes \
	alphaTreduceFactor   0.1 \
	alphaTincreaseFactor 3 \
	nAlphaAdjustMax      6 \
	wolfeEnergy          0.0001 \
	wolfeGradient        0.9 \
	fdTest               no
fluid-solvent H2O 55.338 ScalarEOS \
	epsBulk 78.4 \
	pMol 0.92466 \
	epsInf 1.77 \
	Pvap 1.06736e-10 \
	sigmaBulk 4.62e-05 \
	Rvdw 2.61727 \
	Res 1.42
forces-output-coords Positions
initial-state 100_0-Vacuum.$VAR
ion H   0.625865855340137   0.717202738252553   0.330781986052699 1
ion H   0.319666152749135   0.462916138790224   0.330763812136101 1
ion C   0.546830000000000   0.553870000000000   0.330770000000000 0
ion O   0.599412153429453   0.352132666577773   0.330715455256744 1
ion O   0.383495849853255   0.614448040191864   0.330738274343548 1
ion-species GBRV/$ID_pbesol.uspp
ion-width Ecut
ionic-minimize  \
	dirUpdateScheme      L-BFGS \
	linminMethod         DirUpdateRecommended \
	nIterations          0 \
	history              15 \
	knormThreshold       0.0001 \
	energyDiffThreshold  1e-06 \
	nEnergyDiff          2 \
	alphaTstart          1 \
	alphaTmin            1e-10 \
	updateTestStepSize   yes \
	alphaTreduceFactor   0.1 \
	alphaTincreaseFactor 3 \
	nAlphaAdjustMax      3 \
	wolfeEnergy          0.0001 \
	wolfeGradient        0.9 \
	fdTest               no
kpoint   0.000000000000   0.000000000000   0.000000000000  1.00000000000000
kpoint-folding 4 4 1 
latt-move-scale 1 1 1
latt-scale 1 1 1 
lattice Triclinic 15.0309 10.6282 31.8847 90 90 90
lattice-minimize  \
	dirUpdateScheme      L-BFGS \
	linminMethod         DirUpdateRecommended \
	nIterations          0 \
	history              15 \
	knormThreshold       0 \
	energyDiffThreshold  1e-06 \
	nEnergyDiff          2 \
	alphaTstart          1 \
	alphaTmin            1e-10 \
	updateTestStepSize   yes \
	alphaTreduceFactor   0.1 \
	alphaTincreaseFactor 3 \
	nAlphaAdjustMax      3 \
	wolfeEnergy          0.0001 \
	wolfeGradient        0.9 \
	fdTest               no
lcao-params -1 1e-06 0.01
pcm-variant GLSSA13
spintype no-spin
subspace-rotation-factor 1 yes
symmetries automatic
symmetry-threshold 0.0001



---------- Setting up symmetries ----------

Found 8 point-group symmetries of the bravais lattice
Found 1 space-group symmetries with basis
Applied RMS atom displacement 0 bohrs to make symmetries exact.

---------- Initializing the Grid ----------
R = 
[    15.0309          0          0  ]
[          0    10.6282          0  ]
[          0          0    31.8847  ]
unit cell volume = 5093.63
G =
[   0.418018          0          0  ]
[          0   0.591179          0  ]
[          0          0    0.19706  ]
Minimum fftbox size, Smin = [  68  48  144  ]
Chosen fftbox size, S = [  70  48  144  ]

---------- Initializing tighter grid for wavefunction operations ----------
R = 
[    15.0309          0          0  ]
[          0    10.6282          0  ]
[          0          0    31.8847  ]
unit cell volume = 5093.63
G =
[   0.418018          0          0  ]
[          0   0.591179          0  ]
[          0          0    0.19706  ]
Minimum fftbox size, Smin = [  64  44  132  ]
Chosen fftbox size, S = [  64  48  140  ]

---------- Exchange Correlation functional ----------
Initalized PBEsol GGA exchange.
Initalized PBEsol GGA correlation.

---------- Setting up pseudopotentials ----------
Width of ionic core gaussian charges (only for fluid interactions / plotting) set to 0.397384

Reading pseudopotential file '/Users/juanmendezvalderrama/Documents/JDFTX/build/pseudopotentials/GBRV/h_pbesol.uspp':
  Title: H.  Created by USPP 7.3.6 on 22-9-15
  Reference state energy: -0.449841.  1 valence electrons in orbitals:
    |100>  occupation: 1  eigenvalue: -0.232690
  lMax: 0  lLocal: 1  QijEcut: 6
  2 projectors sampled on a log grid with 395 points:
    l: 0  eig: -0.232690  rCut: 1.2
    l: 0  eig: 1.000000  rCut: 1.2
  Transforming local potential to a uniform radial grid of dG=0.02 with 1247 points.
  Transforming nonlocal projectors to a uniform radial grid of dG=0.02 with 432 points.
  Transforming density augmentations to a uniform radial grid of dG=0.02 with 1247 points.
  Transforming atomic orbitals to a uniform radial grid of dG=0.02 with 432 points.
  Core radius for overlap checks: 1.20 bohrs.

Reading pseudopotential file '/Users/juanmendezvalderrama/Documents/JDFTX/build/pseudopotentials/GBRV/c_pbesol.uspp':
  Title: C.  Created by USPP 7.3.6 on 3-2-2014
  Reference state energy: -5.383511.  4 valence electrons in orbitals:
    |200>  occupation: 2  eigenvalue: -0.501126
    |210>  occupation: 2  eigenvalue: -0.192448
  lMax: 1  lLocal: 2  QijEcut: 5
  4 projectors sampled on a log grid with 503 points:
    l: 0  eig: -0.501126  rCut: 1.3
    l: 0  eig: 0.000000  rCut: 1.3
    l: 1  eig: -0.192448  rCut: 1.3
    l: 1  eig: 0.000000  rCut: 1.3
  Partial core density with radius 1.1
  Transforming core density to a uniform radial grid of dG=0.02 with 1247 points.
  Transforming local potential to a uniform radial grid of dG=0.02 with 1247 points.
  Transforming nonlocal projectors to a uniform radial grid of dG=0.02 with 432 points.
  Transforming density augmentations to a uniform radial grid of dG=0.02 with 1247 points.
  Transforming atomic orbitals to a uniform radial grid of dG=0.02 with 432 points.
  Core radius for overlap checks: 1.30 bohrs.

Reading pseudopotential file '/Users/juanmendezvalderrama/Documents/JDFTX/build/pseudopotentials/GBRV/o_pbesol.uspp':
  Title: O.  Created by USPP 7.3.6 on 3-2-2014
  Reference state energy: -15.849885.  6 valence electrons in orbitals:
    |200>  occupation: 2  eigenvalue: -0.873214
    |210>  occupation: 4  eigenvalue: -0.330058
  lMax: 2  lLocal: 2  QijEcut: 6
  5 projectors sampled on a log grid with 511 points:
    l: 0  eig: -0.873214  rCut: 1.25
    l: 0  eig: 0.000000  rCut: 1.25
    l: 1  eig: -0.330058  rCut: 1.25
    l: 1  eig: 0.000000  rCut: 1.25
    l: 2  eig: 1.000000  rCut: 1.25
  Partial core density with radius 0.7
  Transforming core density to a uniform radial grid of dG=0.02 with 1247 points.
  Transforming local potential to a uniform radial grid of dG=0.02 with 1247 points.
  Transforming nonlocal projectors to a uniform radial grid of dG=0.02 with 432 points.
  Transforming density augmentations to a uniform radial grid of dG=0.02 with 1247 points.
  Transforming atomic orbitals to a uniform radial grid of dG=0.02 with 432 points.
  Core radius for overlap checks: 1.25 bohrs.

Initialized 3 species with 5 total atoms.

Folded 1 k-points by 4x4x1 to 16 k-points.

---------- Setting up k-points, bands, fillings ----------
Adding inversion symmetry to k-mesh for non-inversion-symmetric unit cell.
Reduced to 10 k-points under symmetry. 
Computing the number of bands and number of electrons
Reading initial fillings from file 100_0-Vacuum.fillings.
nElectrons:  18.000000   nBands: 14   nStates: 10

----- Setting up reduced wavefunction bases (one per k-point) -----
average nbasis = 21760.562 , ideal nbasis = 21760.388

---------- Setting up ewald sum ----------
Optimum gaussian width for ewald sums = 5.249174 bohr.
Real space sum over 1001 unit cells with max indices [  5  6  3  ]
Reciprocal space sum over 3289 terms with max indices [  6  5  11  ]

---------- Allocating electronic variables ----------
Initializing wave functions:  reading from '100_0-Vacuum.wfns'
----- createFluidSolver() ----- (Fluid-side solver setup)
   Initializing fluid molecule 'H2O'
     Initializing site 'O'
       Electron density: proportional to exp(-r/0.36935)*erfc((r-0.51523)/0.36823) with norm 6.826
       Charge density: gaussian nuclear width 0.478731 with net site charge 0.826
       Polarizability: cuspless exponential with width 0.32 and norm 3.73
       Hard sphere radius: 2.57003 bohrs
       Positions in reference frame:
         [ +0.000000 +0.000000 +0.000000 ]
     Initializing site 'H'
       Electron density: proportional to exp(-r/0.34641)*erfc((r-0)/0.390882) with norm 0.587
       Charge density: gaussian nuclear width 0.377945 with net site charge -0.413
       Polarizability: cuspless exponential with width 0.39 and norm 3.3
       Positions in reference frame:
         [ +0.000000 -1.441945 +1.122523 ]
         [ +0.000000 +1.441945 +1.122523 ]
     Net charge: 0   dipole magnitude: 0.927204
     Initializing spherical shell mfKernel with radius 2.61727 Bohr
     deltaS corrections:
       site 'O': -7.54299
       site 'H': -6.83917
   Initializing fluid molecule 'Na+'
     Initializing site 'Na'
       Electron density: proportional to exp(-r/0.19682)*erfc((r-0.71491)/0.41314) with norm 8.1383
       Charge density: gaussian nuclear width 0.365347 with net site charge -1
       Hard sphere radius: 1.86327 bohrs
       Positions in reference frame:
         [ +0.000000 +0.000000 +0.000000 ]
     Net charge: -1   dipole magnitude: 0
     Initializing gaussian mfKernel with width: 1.55004 Bohr
     deltaS corrections:
       site 'Na': -22.3555
   Initializing fluid molecule 'ClO4-'
     Initializing site 'Cl'
       Electron density: proportional to exp(-r/0.48793)*erfc((r-0.93371)/0.45657) with norm 6.2308
       Charge density: gaussian nuclear width 0.55117 with net site charge -0.7692
       Hard sphere radius: 4.42196 bohrs
       Positions in reference frame:
         [ +0.000000 +0.000000 +0.000000 ]
     Initializing site 'O'
       Electron density: proportional to exp(-r/0.36013)*erfc((r-0.51636)/0.37371) with norm 6.4423
       Charge density: gaussian nuclear width 0.478731 with net site charge 0.4423
       Positions in reference frame:
         [ +1.705286 +1.705286 +1.705286 ]
         [ +1.705286 -1.705286 -1.705286 ]
         [ -1.705286 +1.705286 -1.705286 ]
         [ -1.705286 -1.705286 +1.705286 ]
     Net charge: 1   dipole magnitude: 0
     Initializing gaussian mfKernel with width: 3.22033 Bohr
     deltaS corrections:
       site 'Cl': -87.0374
       site 'O': 12.0842

Correction to mu due to finite nuclear width = -0.00350626
   Cavity determined by nc: 0.001 and sigma: 0.6
   Effective cavity tension: 9.5e-06 Eh/bohr^2 to account for cavitation and dispersion.
   Nonlinear dielectric with epsBulk = 78.4 and epsInf = 1.77 with density Nmol = 0.0049383 of dipoles pMol = 0.92466 at T = 298 K.
   Nonlinear ions with screening length = 12.843 bohrs and Z = 1 at T = 298 K.


---- Citations for features of the code used in this run ----

   Software package:
      R. Sundararaman, K. Letchworth-Weaver, K.A. Schwarz, D. Gunceler, Y. Ozhabes and T.A. Arias, 'JDFTx: software for joint density-functional theory', SoftwareX 6, 278 (2017)

   gga-PBEsol exchange-correlation functional:
      J.P. Perdew et al., Phys. Rev. Lett. 100, 136406 (2008)

   Pseudopotentials:
      KF Garrity, JW Bennett, KM Rabe and D Vanderbilt, Comput. Mater. Sci. 81, 446 (2014)

   Linear/nonlinear dielectric/ionic fluid model with effective cavity tension:
      D. Gunceler, K. Letchworth-Weaver, R. Sundararaman, K.A. Schwarz and T.A. Arias, Modelling Simul. Mater. Sci. Eng. 21, 074005 (2013)

   Total energy minimization with Auxiliary Hamiltonian:
      C. Freysoldt, S. Boeck, and J. Neugebauer, Phys. Rev. B 79, 241103(R) (2009)

This list may not be complete. Please suggest additional citations or
report any other bugs at https://github.com/shankar1729/jdftx/issues

Initialization completed successfully at t[s]:      2.27

Initializing state of NonlinearPCM using a similar LinearPCM: 	Linear fluid (dielectric constant: 78.4, screening length: 12.843 Bohr) occupying 0.924574 of unit cell:	Completed after 33 iterations at t[s]:      5.18

-------- Electronic minimization -----------
	FillingsUpdate:  mu: -0.155156633  nElectrons: 18.000000
ElecMinimize: Iter:   0  F: -38.964864990002681  |grad|_K:  1.785e-05  alpha:  1.000e+00
	FillingsUpdate:  mu: -0.149125281  nElectrons: 18.000000
	SubspaceRotationAdjust: set factor to 0.827
ElecMinimize: Iter:   1  F: -38.965436659303187  |grad|_K:  1.146e-05  alpha:  6.018e-01  linmin:  4.902e-05  t[s]:     11.65
	FillingsUpdate:  mu: -0.150417798  nElectrons: 18.000000
	SubspaceRotationAdjust: set factor to 0.719
ElecMinimize: Iter:   2  F: -38.965606601074832  |grad|_K:  4.609e-06  alpha:  4.281e-01  linmin: -9.404e-06  t[s]:     15.08
	FillingsUpdate:  mu: -0.150110802  nElectrons: 18.000000
	SubspaceRotationAdjust: set factor to 0.714
ElecMinimize: Iter:   3  F: -38.965646727709213  |grad|_K:  2.317e-06  alpha:  6.190e-01  linmin: -3.948e-05  t[s]:     18.52
	FillingsUpdate:  mu: -0.150236580  nElectrons: 18.000000
	SubspaceRotationAdjust: set factor to 0.734
ElecMinimize: Iter:   4  F: -38.965658810335547  |grad|_K:  1.525e-06  alpha:  7.372e-01  linmin:  4.497e-06  t[s]:     21.91
	FillingsUpdate:  mu: -0.150369279  nElectrons: 18.000000
	SubspaceRotationAdjust: set factor to 0.782
ElecMinimize: Iter:   5  F: -38.965663256025778  |grad|_K:  7.925e-07  alpha:  6.270e-01  linmin:  2.863e-06  t[s]:     25.33
	FillingsUpdate:  mu: -0.150265307  nElectrons: 18.000000
	SubspaceRotationAdjust: set factor to 0.847
ElecMinimize: Iter:   6  F: -38.965664672416871  |grad|_K:  3.919e-07  alpha:  7.405e-01  linmin:  2.232e-05  t[s]:     28.73
	FillingsUpdate:  mu: -0.150341446  nElectrons: 18.000000
	SubspaceRotationAdjust: set factor to 0.79
ElecMinimize: Iter:   7  F: -38.965664978590176  |grad|_K:  2.490e-07  alpha:  6.550e-01  linmin:  1.807e-06  t[s]:     32.14
	FillingsUpdate:  mu: -0.150297589  nElectrons: 18.000000
	SubspaceRotationAdjust: set factor to 0.615
ElecMinimize: Iter:   8  F: -38.965665079308451  |grad|_K:  1.426e-07  alpha:  5.333e-01  linmin:  5.013e-07  t[s]:     35.54
	FillingsUpdate:  mu: -0.150305980  nElectrons: 18.000000
	SubspaceRotationAdjust: set factor to 0.616
ElecMinimize: Iter:   9  F: -38.965665123379836  |grad|_K:  7.421e-08  alpha:  7.115e-01  linmin: -2.623e-07  t[s]:     38.97
	FillingsUpdate:  mu: -0.150313731  nElectrons: 18.000000
	SubspaceRotationAdjust: set factor to 0.678
ElecMinimize: Iter:  10  F: -38.965665136174024  |grad|_K:  4.167e-08  alpha:  7.622e-01  linmin:  6.899e-07  t[s]:     42.39
	FillingsUpdate:  mu: -0.150305828  nElectrons: 18.000000
	SubspaceRotationAdjust: set factor to 0.638
ElecMinimize: Iter:  11  F: -38.965665139830271  |grad|_K:  2.440e-08  alpha:  6.912e-01  linmin:  6.243e-08  t[s]:     45.81
	FillingsUpdate:  mu: -0.150310564  nElectrons: 18.000000
	SubspaceRotationAdjust: set factor to 0.598
ElecMinimize: Iter:  12  F: -38.965665140940935  |grad|_K:  1.427e-08  alpha:  6.122e-01  linmin: -1.247e-07  t[s]:     49.23
ElecMinimize: Converged (|Delta F|<1.000000e-08 for 2 iters).
Setting wave functions to eigenvectors of Hamiltonian

-------- Electron <-> Fluid self-consistency loop -----------

---------------------- Fluid Minimization # 1 -----------------------
FluidMinimize: Iter:   0  F: -0.007797774562604  |grad|_K:  7.145e-05  alpha:  1.000e+00
FluidMinimize: Iter:   1  F: -0.009176117409139  |grad|_K:  4.372e-05  alpha:  4.179e-01  linmin:  2.113e-01  cgtest: -2.857e-01  t[s]:     49.52
FluidMinimize: Iter:   2  F: -0.009303525130011  |grad|_K:  3.540e-05  alpha:  8.944e-02  linmin: -6.833e-03  cgtest:  3.312e-01  t[s]:     49.68
FluidMinimize: Iter:   3  F: -0.009552069176947  |grad|_K:  2.685e-05  alpha:  1.984e-01  linmin: -3.676e-03  cgtest: -2.307e-01  t[s]:     49.84
FluidMinimize: Iter:   4  F: -0.009633447544821  |grad|_K:  1.882e-05  alpha:  1.158e-01  linmin:  1.531e-05  cgtest:  5.802e-03  t[s]:     50.00
FluidMinimize: Iter:   5  F: -0.009734383446460  |grad|_K:  1.635e-05  alpha:  2.965e-01  linmin:  4.652e-03  cgtest:  1.296e-02  t[s]:     50.16
FluidMinimize: Iter:   6  F: -0.009796521679119  |grad|_K:  2.377e-05  alpha:  2.440e-01  linmin: -7.102e-04  cgtest:  4.553e-03  t[s]:     50.31
FluidMinimize: Iter:   7  F: -0.009862553113761  |grad|_K:  1.878e-05  alpha:  1.219e-01  linmin:  1.842e-05  cgtest: -6.743e-02  t[s]:     50.47
FluidMinimize: Iter:   8  F: -0.009912738305109  |grad|_K:  5.828e-05  alpha:  2.480e-01  linmin:  9.111e-02  cgtest: -1.537e-01  t[s]:     50.63
FluidMinimize: 	Bad step direction: g.d > 0.
FluidMinimize: 	Undoing step.
FluidMinimize: 	Step failed: resetting search direction.
FluidMinimize: Iter:   9  F: -0.009912738305109  |grad|_K:  5.828e-05  alpha:  0.000e+00
FluidMinimize: Iter:  10  F: -0.009959861342745  |grad|_K:  3.337e-05  alpha:  5.373e-02  linmin:  9.193e-02  cgtest: -6.579e-01  t[s]:     50.86
FluidMinimize: Iter:  11  F: -0.009978867846687  |grad|_K:  4.780e-05  alpha:  8.926e-02  linmin: -5.840e-03  cgtest:  9.452e-01  t[s]:     51.02
FluidMinimize: Iter:  12  F: -0.010087786760790  |grad|_K:  5.261e-05  alpha:  2.396e-02  linmin: -1.648e-01  cgtest:  8.831e-01  t[s]:     51.18
FluidMinimize: 	Step increased F by 4.661670e-03, reducing alpha to 5.907282e-03.
FluidMinimize: Iter:  13  F: -0.010127260342838  |grad|_K:  5.627e-05  alpha:  5.907e-03  linmin: -1.984e-01  cgtest:  9.918e-01  t[s]:     51.42
FluidMinimize: 	Wrong curvature in test step, increasing alphaT to 1.772185e-02.
FluidMinimize: Iter:  14  F: -0.010166932248924  |grad|_K:  5.557e-05  alpha: -9.799e-01  linmin: -2.195e-01  cgtest:  9.925e-01  t[s]:     51.57
FluidMinimize: Encountered beta<0, resetting CG.
FluidMinimize: 	Test step failed with F = inf, reducing alphaT to 1.000000e-01.
FluidMinimize: Iter:  15  F: -0.010167624820428  |grad|_K:  5.548e-05  alpha:  1.160e-04  linmin: -2.573e-01  cgtest:  1.000e+00  t[s]:     51.80
FluidMinimize: Encountered beta<0, resetting CG.
FluidMinimize: 	Predicted alpha/alphaT>3.000000, increasing alphaT to 3.479449e-04.
FluidMinimize: 	Predicted alpha/alphaT>3.000000, increasing alphaT to 1.043835e-03.
FluidMinimize: 	Predicted alpha/alphaT>3.000000, increasing alphaT to 3.131504e-03.
FluidMinimize: 	Predicted alpha/alphaT>3.000000, increasing alphaT to 9.394513e-03.
FluidMinimize: 	Step increased F by 1.619771e-04, reducing alpha to 2.724461e-03.
FluidMinimize: Iter:  16  F: -0.010183451587643  |grad|_K:  5.240e-05  alpha:  2.724e-03  linmin: -2.442e-01  cgtest:  9.974e-01  t[s]:     52.29
FluidMinimize: Encountered beta<0, resetting CG.
FluidMinimize: 	Predicted alpha/alphaT>3.000000, increasing alphaT to 8.173383e-03.
FluidMinimize: 	Step increased F by 1.009954e-05, reducing alpha to 1.991756e-03.
FluidMinimize: Iter:  17  F: -0.010193702718048  |grad|_K:  4.897e-05  alpha:  1.992e-03  linmin: -2.463e-01  cgtest:  9.975e-01  t[s]:     52.59
FluidMinimize: Encountered beta<0, resetting CG.
FluidMinimize: 	Predicted alpha/alphaT>3.000000, increasing alphaT to 5.975269e-03.
FluidMinimize: 	Predicted alpha/alphaT>3.000000, increasing alphaT to 1.792581e-02.
FluidMinimize: Iter:  18  F: -0.010224003425047  |grad|_K:  3.118e-05  alpha:  9.443e-03  linmin: -4.561e-02  cgtest:  3.330e-01  t[s]:     52.89
FluidMinimize: 	Predicted alpha/alphaT>3.000000, increasing alphaT to 2.832784e-02.
FluidMinimize: 	Predicted alpha/alphaT>3.000000, increasing alphaT to 8.498351e-02.
FluidMinimize: Iter:  19  F: -0.010310817225453  |grad|_K:  7.041e-05  alpha:  4.968e-02  linmin: -4.612e-02  cgtest:  3.907e-01  t[s]:     53.18
FluidMinimize: Iter:  20  F: -0.010412541457500  |grad|_K:  3.300e-05  alpha:  1.197e-02  linmin: -8.508e-02  cgtest:  5.595e-01  t[s]:     53.34
FluidMinimize: Encountered beta<0, resetting CG.
FluidMinimize: Iter:  21  F: -0.010454993670607  |grad|_K:  4.707e-05  alpha:  3.311e-02  linmin: -5.947e-02  cgtest:  2.435e-01  t[s]:     53.50
FluidMinimize: Iter:  22  F: -0.010471870890429  |grad|_K:  3.846e-05  alpha:  3.574e-03  linmin: -1.068e-01  cgtest:  7.616e-01  t[s]:     53.66
FluidMinimize: 	Predicted alpha/alphaT>3.000000, increasing alphaT to 1.072063e-02.
FluidMinimize: Iter:  23  F: -0.010499656454039  |grad|_K:  8.562e-05  alpha:  2.594e-02  linmin:  1.309e-01  cgtest: -3.007e-01  t[s]:     53.88
FluidMinimize: Iter:  24  F: -0.010500389045892  |grad|_K:  8.752e-05  alpha:  2.503e-04  linmin: -3.708e-02  cgtest:  9.995e-01  t[s]:     54.04
FluidMinimize: 	Predicted alpha/alphaT>3.000000, increasing alphaT to 7.508095e-04.
FluidMinimize: 	Predicted alpha/alphaT>3.000000, increasing alphaT to 2.252428e-03.
FluidMinimize: Iter:  25  F: -0.010520640285551  |grad|_K:  3.631e-05  alpha:  2.659e-03  linmin: -4.139e-02  cgtest:  2.197e-01  t[s]:     54.32
FluidMinimize: 	Predicted alpha/alphaT>3.000000, increasing alphaT to 7.976685e-03.
FluidMinimize: 	Predicted alpha/alphaT>3.000000, increasing alphaT to 2.393006e-02.
FluidMinimize: Iter:  26  F: -0.010545687311470  |grad|_K:  4.433e-05  alpha:  1.534e-02  linmin: -1.358e-02  cgtest: -7.478e-02  t[s]:     54.62
FluidMinimize: Iter:  27  F: -0.010574998264259  |grad|_K:  5.486e-05  alpha:  1.474e-02  linmin: -2.057e-02  cgtest:  2.405e-01  t[s]:     54.77
FluidMinimize: 	Predicted alpha/alphaT>3.000000, increasing alphaT to 4.422972e-02.
FluidMinimize: Iter:  28  F: -0.010617376934715  |grad|_K:  4.709e-05  alpha:  6.929e-03  linmin: -2.607e-01  cgtest:  9.882e-01  t[s]:     55.00
FluidMinimize: Encountered beta<0, resetting CG.
FluidMinimize: Iter:  29  F: -0.010638385884332  |grad|_K:  5.043e-05  alpha:  1.127e-02  linmin:  8.046e-02  cgtest: -2.968e-01  t[s]:     55.15
FluidMinimize: Iter:  30  F: -0.010645596884518  |grad|_K:  4.799e-05  alpha:  5.977e-03  linmin:  9.142e-03  cgtest:  6.798e-01  t[s]:     55.31
FluidMinimize: Iter:  31  F: -0.010661841360769  |grad|_K:  5.021e-05  alpha:  7.149e-03  linmin: -5.245e-02  cgtest:  1.027e-01  t[s]:     55.47
FluidMinimize: Iter:  32  F: -0.010680856495805  |grad|_K:  4.294e-05  alpha:  6.973e-03  linmin:  3.682e-02  cgtest: -4.519e-01  t[s]:     55.62
FluidMinimize: Iter:  33  F: -0.010693695884205  |grad|_K:  1.045e-04  alpha:  1.125e-02  linmin:  2.805e-02  cgtest:  8.786e-01  t[s]:     55.78
FluidMinimize: Iter:  34  F: -0.010743098420046  |grad|_K:  7.888e-05  alpha:  5.744e-03  linmin: -4.940e-03  cgtest:  6.438e-01  t[s]:     55.93
FluidMinimize: Iter:  35  F: -0.010776196637170  |grad|_K:  4.608e-05  alpha:  5.521e-03  linmin: -6.595e-02  cgtest:  1.659e-01  t[s]:     56.09
FluidMinimize: Iter:  36  F: -0.010786611306728  |grad|_K:  3.830e-05  alpha:  4.556e-03  linmin:  5.381e-03  cgtest: -9.064e-02  t[s]:     56.24
FluidMinimize: Iter:  37  F: -0.010802398118277  |grad|_K:  6.456e-05  alpha:  1.257e-02  linmin:  4.093e-02  cgtest:  5.657e-01  t[s]:     56.40
FluidMinimize: Iter:  38  F: -0.010815564672078  |grad|_K:  4.968e-05  alpha:  4.852e-03  linmin:  4.985e-02  cgtest: -3.259e-01  t[s]:     56.56
FluidMinimize: 	Predicted alpha/alphaT>3.000000, increasing alphaT to 1.455659e-02.
FluidMinimize: 	Step increased F by 3.664581e-05, reducing alpha to 3.987808e-03.
FluidMinimize: Iter:  39  F: -0.010829923751229  |grad|_K:  4.656e-05  alpha:  3.988e-03  linmin: -2.673e-01  cgtest:  9.947e-01  t[s]:     56.86
FluidMinimize: Encountered beta<0, resetting CG.
FluidMinimize: Iter:  40  F: -0.010838774891702  |grad|_K:  3.874e-05  alpha:  4.243e-03  linmin:  7.824e-03  cgtest: -6.423e-02  t[s]:     57.02
FluidMinimize: Iter:  41  F: -0.010851870376496  |grad|_K:  3.320e-05  alpha:  9.245e-03  linmin: -1.674e-02  cgtest:  5.824e-01  t[s]:     57.18
FluidMinimize: Iter:  42  F: -0.010856077641718  |grad|_K:  2.709e-05  alpha:  4.167e-03  linmin:  6.943e-03  cgtest: -1.193e-01  t[s]:     57.34
FluidMinimize: 	Predicted alpha/alphaT>3.000000, increasing alphaT to 1.250149e-02.
FluidMinimize: 	Predicted alpha/alphaT>3.000000, increasing alphaT to 3.750447e-02.
FluidMinimize: Iter:  43  F: -0.010899366429114  |grad|_K:  1.158e-04  alpha:  9.544e-02  linmin:  5.233e-02  cgtest: -6.266e-01  t[s]:     57.62
FluidMinimize: Iter:  44  F: -0.010899366429121  |grad|_K:  1.158e-04  alpha:  1.658e-12  linmin: -9.412e-03  cgtest:  1.000e+00  t[s]:     57.79
FluidMinimize: Encountered beta<0, resetting CG.
FluidMinimize: 	Step increased F by 1.476820e-03, reducing alpha to 4.619683e-02.
FluidMinimize: 	Step increased F by 7.210462e-04, reducing alpha to 4.619683e-03.
FluidMinimize: Iter:  45  F: -0.010907792276956  |grad|_K:  1.087e-04  alpha:  4.620e-03  linmin:  3.058e-01  cgtest: -5.578e-01  t[s]:     58.11
FluidMinimize: Converged (|Delta F|<1.000000e-05 for 2 iters).

Fluid minimization # 1 changed total free energy by -3.110018e-03 at t[s]:     58.19

-------------------- Electronic Minimization # 1 ---------------------
	FillingsUpdate:  mu: -0.149410424  nElectrons: 18.000000
ElecMinimize: Iter:   0  F: -38.968775252671847  |grad|_K:  1.341e-05  alpha:  1.000e+00
	FillingsUpdate:  mu: -0.145383901  nElectrons: 18.000000
	SubspaceRotationAdjust: set factor to 0.635
ElecMinimize: Iter:   1  F: -38.969247464738679  |grad|_K:  8.480e-06  alpha:  8.558e-01  linmin:  3.074e-04  t[s]:     63.84
	FillingsUpdate:  mu: -0.146039111  nElectrons: 18.000000
	SubspaceRotationAdjust: set factor to 0.678
ElecMinimize: Iter:   2  F: -38.969378599230900  |grad|_K:  4.568e-06  alpha:  6.078e-01  linmin: -1.016e-05  t[s]:     67.25
	FillingsUpdate:  mu: -0.145145828  nElectrons: 18.000000
	SubspaceRotationAdjust: set factor to 0.672
ElecMinimize: Iter:   3  F: -38.969412892693811  |grad|_K:  2.161e-06  alpha:  5.391e-01  linmin: -1.750e-05  t[s]:     70.73
	FillingsUpdate:  mu: -0.145533862  nElectrons: 18.000000
	SubspaceRotationAdjust: set factor to 0.661
ElecMinimize: Iter:   4  F: -38.969422616758187  |grad|_K:  1.034e-06  alpha:  6.827e-01  linmin:  3.938e-06  t[s]:     74.34
	FillingsUpdate:  mu: -0.145539749  nElectrons: 18.000000
	SubspaceRotationAdjust: set factor to 0.676
ElecMinimize: Iter:   5  F: -38.969424773455188  |grad|_K:  5.863e-07  alpha:  6.618e-01  linmin: -2.448e-06  t[s]:     77.83
ElecMinimize: Converged (|Delta F|<1.000000e-05 for 2 iters).
Setting wave functions to eigenvectors of Hamiltonian

Electronic minimization # 1 changed total free energy by -6.496148e-04 at t[s]:     77.88

---------------------- Fluid Minimization # 2 -----------------------
FluidMinimize: Iter:   0  F: -0.013652754363716  |grad|_K:  4.879e-05  alpha:  1.000e+00
FluidMinimize: Iter:   1  F: -0.013652790913981  |grad|_K:  4.873e-05  alpha:  7.937e-06  linmin: -1.770e-01  cgtest:  1.000e+00  t[s]:     78.14
FluidMinimize: Encountered beta<0, resetting CG.
FluidMinimize: 	Predicted alpha/alphaT>3.000000, increasing alphaT to 2.381233e-05.
FluidMinimize: 	Predicted alpha/alphaT>3.000000, increasing alphaT to 7.143700e-05.
FluidMinimize: 	Predicted alpha/alphaT>3.000000, increasing alphaT to 2.143110e-04.
FluidMinimize: 	Predicted alpha/alphaT>3.000000, increasing alphaT to 6.429330e-04.
FluidMinimize: 	Predicted alpha/alphaT>3.000000, increasing alphaT to 1.928799e-03.
FluidMinimize: 	Predicted alpha/alphaT>3.000000, increasing alphaT to 5.786397e-03.
FluidMinimize: Iter:   2  F: -0.013669359318475  |grad|_K:  7.127e-05  alpha:  6.595e-03  linmin: -3.572e-02  cgtest:  1.059e-01  t[s]:     78.64
FluidMinimize: Iter:   3  F: -0.013696401828493  |grad|_K:  4.975e-05  alpha:  4.371e-03  linmin: -1.416e-03  cgtest: -4.870e-01  t[s]:     78.80
FluidMinimize: Iter:   4  F: -0.013712187973998  |grad|_K:  4.881e-05  alpha:  6.460e-03  linmin: -8.358e-04  cgtest:  7.437e-01  t[s]:     78.97
FluidMinimize: Iter:   5  F: -0.013721515673408  |grad|_K:  6.059e-05  alpha:  4.182e-03  linmin:  3.620e-04  cgtest: -2.194e-02  t[s]:     79.13
FluidMinimize: Iter:   6  F: -0.013744643739516  |grad|_K:  6.628e-05  alpha:  7.685e-03  linmin:  6.403e-02  cgtest: -5.233e-01  t[s]:     79.29
FluidMinimize: Iter:   7  F: -0.013751960203909  |grad|_K:  7.780e-05  alpha:  3.553e-03  linmin:  8.179e-04  cgtest:  9.186e-01  t[s]:     79.45
FluidMinimize: Iter:   8  F: -0.013771082876857  |grad|_K:  7.531e-05  alpha:  3.309e-03  linmin: -4.569e-02  cgtest:  4.784e-02  t[s]:     79.61
FluidMinimize: Iter:   9  F: -0.013792619471423  |grad|_K:  4.744e-05  alpha:  3.737e-03  linmin:  1.312e-02  cgtest: -4.252e-01  t[s]:     79.77
FluidMinimize: Iter:  10  F: -0.013804201734426  |grad|_K:  4.604e-05  alpha:  6.106e-03  linmin: -2.202e-03  cgtest:  6.317e-01  t[s]:     79.94
FluidMinimize: Iter:  11  F: -0.013814876253466  |grad|_K:  5.962e-05  alpha:  5.248e-03  linmin: -6.602e-03  cgtest: -1.601e-02  t[s]:     80.10
FluidMinimize: Iter:  12  F: -0.013830136932512  |grad|_K:  3.079e-05  alpha:  4.101e-03  linmin:  2.030e-02  cgtest: -3.561e-01  t[s]:     80.26
FluidMinimize: 	Predicted alpha/alphaT>3.000000, increasing alphaT to 1.230438e-02.
FluidMinimize: Iter:  13  F: -0.013860809569095  |grad|_K:  5.979e-05  alpha:  3.399e-02  linmin: -1.141e-02  cgtest:  4.079e-01  t[s]:     80.48
FluidMinimize: Iter:  14  F: -0.013869660779737  |grad|_K:  5.113e-05  alpha:  1.326e-03  linmin: -1.158e-01  cgtest:  9.807e-01  t[s]:     80.64
FluidMinimize: Encountered beta<0, resetting CG.
FluidMinimize: 	Predicted alpha/alphaT>3.000000, increasing alphaT to 3.979151e-03.
FluidMinimize: Iter:  15  F: -0.013887172962642  |grad|_K:  2.726e-05  alpha:  6.944e-03  linmin:  2.806e-03  cgtest: -1.839e-02  t[s]:     80.87
FluidMinimize: Iter:  16  F: -0.013890056417078  |grad|_K:  3.213e-05  alpha:  4.188e-03  linmin:  1.280e-03  cgtest: -6.002e-02  t[s]:     81.02
FluidMinimize: Iter:  17  F: -0.013898650960356  |grad|_K:  4.478e-05  alpha:  9.479e-03  linmin:  4.121e-02  cgtest: -1.601e-01  t[s]:     81.19
FluidMinimize: Converged (|Delta F|<1.000000e-05 for 2 iters).

Fluid minimization # 2 changed total free energy by -2.458966e-04 at t[s]:     81.27

-------------------- Electronic Minimization # 2 ---------------------
	FillingsUpdate:  mu: -0.147283661  nElectrons: 18.000000
ElecMinimize: Iter:   0  F: -38.969669800132429  |grad|_K:  2.367e-06  alpha:  1.000e+00
	FillingsUpdate:  mu: -0.146867816  nElectrons: 18.000000
	SubspaceRotationAdjust: set factor to 0.8
ElecMinimize: Iter:   1  F: -38.969681386455683  |grad|_K:  1.322e-06  alpha:  6.750e-01  linmin:  1.851e-06  t[s]:     87.13
	FillingsUpdate:  mu: -0.146860015  nElectrons: 18.000000
	SubspaceRotationAdjust: set factor to 0.824
ElecMinimize: Iter:   2  F: -38.969685189064442  |grad|_K:  7.658e-07  alpha:  7.141e-01  linmin: -2.424e-05  t[s]:     90.69
	FillingsUpdate:  mu: -0.146726577  nElectrons: 18.000000
	SubspaceRotationAdjust: set factor to 0.693
ElecMinimize: Iter:   3  F: -38.969686172505895  |grad|_K:  4.063e-07  alpha:  5.494e-01  linmin: -3.271e-06  t[s]:     94.34
ElecMinimize: Converged (|Delta F|<1.000000e-05 for 2 iters).
Setting wave functions to eigenvectors of Hamiltonian

Electronic minimization # 2 changed total free energy by -1.550245e-05 at t[s]:     94.38

---------------------- Fluid Minimization # 3 -----------------------
FluidMinimize: Iter:   0  F: -0.014307543642161  |grad|_K:  6.175e-05  alpha:  1.000e+00
FluidMinimize: 	Step increased F by 2.736418e-03, reducing alpha to 1.519276e-02.
FluidMinimize: 	Step increased F by 2.386122e-04, reducing alpha to 1.519276e-03.
FluidMinimize: Iter:   1  F: -0.014313517183541  |grad|_K:  2.683e-05  alpha:  1.519e-03  linmin: -2.250e-02  cgtest:  2.022e-01  t[s]:     94.82
FluidMinimize: 	Predicted alpha/alphaT>3.000000, increasing alphaT to 4.557829e-03.
FluidMinimize: Iter:   2  F: -0.014317950185025  |grad|_K:  2.924e-05  alpha:  6.132e-03  linmin:  7.929e-03  cgtest: -1.250e-01  t[s]:     95.05
FluidMinimize: Iter:   3  F: -0.014322404224644  |grad|_K:  3.465e-05  alpha:  5.590e-03  linmin: -3.897e-03  cgtest:  7.895e-02  t[s]:     95.21
FluidMinimize: Iter:   4  F: -0.014330876552929  |grad|_K:  5.293e-05  alpha:  7.325e-03  linmin:  1.034e-02  cgtest: -1.214e-01  t[s]:     95.37
FluidMinimize: Iter:   5  F: -0.014344771118413  |grad|_K:  5.730e-05  alpha:  5.612e-03  linmin: -1.644e-04  cgtest:  4.393e-01  t[s]:     95.54
FluidMinimize: Iter:   6  F: -0.014372178415133  |grad|_K:  4.794e-05  alpha:  9.336e-03  linmin:  3.289e-02  cgtest: -6.595e-02  t[s]:     95.70
FluidMinimize: Iter:   7  F: -0.014382986428102  |grad|_K:  7.076e-05  alpha:  5.720e-03  linmin: -2.154e-03  cgtest:  3.405e-01  t[s]:     95.86
FluidMinimize: Iter:   8  F: -0.014402499911360  |grad|_K:  4.330e-05  alpha:  4.184e-03  linmin: -3.742e-03  cgtest: -3.373e-01  t[s]:     96.02
FluidMinimize: Iter:   9  F: -0.014410631678289  |grad|_K:  4.696e-05  alpha:  4.368e-03  linmin:  5.804e-03  cgtest: -1.261e-01  t[s]:     96.17
FluidMinimize: Iter:  10  F: -0.014421973109066  |grad|_K:  2.730e-05  alpha:  5.472e-03  linmin: -7.317e-03  cgtest:  4.413e-01  t[s]:     96.33
FluidMinimize: 	Predicted alpha/alphaT>3.000000, increasing alphaT to 1.641536e-02.
FluidMinimize: Iter:  11  F: -0.014434283812334  |grad|_K:  3.001e-05  alpha:  1.678e-02  linmin: -1.200e-03  cgtest: -1.669e-02  t[s]:     96.56
FluidMinimize: Iter:  12  F: -0.014441886974474  |grad|_K:  4.751e-05  alpha:  7.991e-03  linmin: -3.747e-03  cgtest:  6.678e-02  t[s]:     96.72
FluidMinimize: Iter:  13  F: -0.014449843035510  |grad|_K:  3.364e-05  alpha:  3.812e-03  linmin:  4.933e-03  cgtest: -2.083e-01  t[s]:     96.89
FluidMinimize: Iter:  14  F: -0.014456468371558  |grad|_K:  3.799e-05  alpha:  6.580e-03  linmin:  3.416e-03  cgtest:  7.526e-02  t[s]:     97.05
FluidMinimize: Iter:  15  F: -0.014466744521678  |grad|_K:  5.085e-05  alpha:  7.621e-03  linmin: -5.559e-03  cgtest:  4.302e-02  t[s]:     97.21
FluidMinimize: Iter:  16  F: -0.014477373479291  |grad|_K:  4.130e-05  alpha:  3.696e-03  linmin: -5.559e-03  cgtest: -5.064e-02  t[s]:     97.37
FluidMinimize: Iter:  17  F: -0.014485316972244  |grad|_K:  3.248e-05  alpha:  4.488e-03  linmin: -7.408e-03  cgtest:  8.397e-02  t[s]:     97.54
FluidMinimize: Iter:  18  F: -0.014499422710806  |grad|_K:  2.840e-05  alpha:  1.289e-02  linmin: -6.712e-03  cgtest: -5.163e-02  t[s]:     97.70
FluidMinimize: Iter:  19  F: -0.014504810812830  |grad|_K:  4.987e-05  alpha:  6.925e-03  linmin:  1.621e-03  cgtest: -7.055e-02  t[s]:     97.86
FluidMinimize: Iter:  20  F: -0.014515522546138  |grad|_K:  2.677e-05  alpha:  4.118e-03  linmin: -3.010e-03  cgtest:  3.861e-01  t[s]:     98.02
FluidMinimize: Iter:  21  F: -0.014520685245821  |grad|_K:  4.085e-05  alpha:  7.628e-03  linmin:  1.455e-02  cgtest: -4.821e-02  t[s]:     98.17
FluidMinimize: Iter:  22  F: -0.014526021009238  |grad|_K:  3.980e-05  alpha:  3.782e-03  linmin:  4.052e-03  cgtest:  1.263e-01  t[s]:     98.33
FluidMinimize: Iter:  23  F: -0.014535753621224  |grad|_K:  2.387e-05  alpha:  6.644e-03  linmin:  1.839e-02  cgtest: -2.629e-01  t[s]:     98.49
FluidMinimize: Iter:  24  F: -0.014541363131264  |grad|_K:  3.583e-05  alpha:  1.072e-02  linmin: -1.001e-02  cgtest:  6.071e-02  t[s]:     98.64
FluidMinimize: Iter:  25  F: -0.014544944468803  |grad|_K:  2.491e-05  alpha:  2.440e-03  linmin: -1.909e-02  cgtest:  1.018e-01  t[s]:     98.80
FluidMinimize: 	Predicted alpha/alphaT>3.000000, increasing alphaT to 7.319709e-03.
FluidMinimize: Iter:  26  F: -0.014553621561675  |grad|_K:  3.646e-05  alpha:  1.294e-02  linmin: -4.535e-03  cgtest: -8.386e-02  t[s]:     99.03
FluidMinimize: Iter:  27  F: -0.014563941773862  |grad|_K:  3.863e-05  alpha:  7.611e-03  linmin: -1.558e-03  cgtest:  1.419e-01  t[s]:     99.19
FluidMinimize: Iter:  28  F: -0.014567516743111  |grad|_K:  3.004e-05  alpha:  2.722e-03  linmin:  1.118e-02  cgtest: -1.700e-01  t[s]:     99.34
FluidMinimize: Iter:  29  F: -0.014573270255216  |grad|_K:  3.486e-05  alpha:  7.596e-03  linmin:  7.758e-03  cgtest:  1.348e-01  t[s]:     99.50
FluidMinimize: Iter:  30  F: -0.014579202295943  |grad|_K:  2.405e-05  alpha:  5.421e-03  linmin:  2.358e-05  cgtest:  2.068e-01  t[s]:     99.66
FluidMinimize: Iter:  31  F: -0.014584886628598  |grad|_K:  4.575e-05  alpha:  1.047e-02  linmin:  1.154e-02  cgtest: -3.708e-02  t[s]:     99.82
FluidMinimize: Iter:  32  F: -0.014590146626303  |grad|_K:  2.976e-05  alpha:  3.245e-03  linmin:  1.508e-02  cgtest: -3.165e-02  t[s]:     99.97
FluidMinimize: Iter:  33  F: -0.014597300316949  |grad|_K:  3.285e-05  alpha:  9.594e-03  linmin:  8.216e-03  cgtest:  1.464e-02  t[s]:    100.13
FluidMinimize: Iter:  34  F: -0.014601826665125  |grad|_K:  3.319e-05  alpha:  4.846e-03  linmin:  5.584e-03  cgtest: -4.864e-02  t[s]:    100.29
FluidMinimize: Iter:  35  F: -0.014604895817895  |grad|_K:  2.636e-05  alpha:  2.882e-03  linmin: -1.132e-03  cgtest:  6.886e-02  t[s]:    100.45
FluidMinimize: 	Predicted alpha/alphaT>3.000000, increasing alphaT to 8.646286e-03.
FluidMinimize: Iter:  36  F: -0.014613152128162  |grad|_K:  1.976e-05  alpha:  1.208e-02  linmin: -4.391e-03  cgtest:  5.166e-02  t[s]:    100.68
FluidMinimize: Iter:  37  F: -0.014620758754530  |grad|_K:  2.685e-05  alpha:  2.000e-02  linmin:  6.106e-03  cgtest: -7.084e-02  t[s]:    100.83
FluidMinimize: Iter:  38  F: -0.014624734369045  |grad|_K:  2.950e-05  alpha:  6.449e-03  linmin:  8.936e-03  cgtest: -2.293e-02  t[s]:    100.99
FluidMinimize: Iter:  39  F: -0.014627299549143  |grad|_K:  2.999e-05  alpha:  3.090e-03  linmin: -2.863e-03  cgtest:  1.334e-01  t[s]:    101.15
FluidMinimize: Iter:  40  F: -0.014633281092108  |grad|_K:  1.803e-05  alpha:  6.524e-03  linmin: -1.087e-02  cgtest: -9.960e-03  t[s]:    101.31
FluidMinimize: 	Predicted alpha/alphaT>3.000000, increasing alphaT to 1.957087e-02.
FluidMinimize: Iter:  41  F: -0.014640823455644  |grad|_K:  2.331e-05  alpha:  2.262e-02  linmin:  1.960e-03  cgtest: -8.559e-02  t[s]:    101.54
FluidMinimize: Iter:  42  F: -0.014642788822579  |grad|_K:  3.240e-05  alpha:  4.528e-03  linmin:  1.634e-02  cgtest: -1.084e-01  t[s]:    101.69
FluidMinimize: Iter:  43  F: -0.014646613030204  |grad|_K:  2.856e-05  alpha:  4.418e-03  linmin:  2.580e-03  cgtest:  3.877e-01  t[s]:    101.85
FluidMinimize: Iter:  44  F: -0.014650947891202  |grad|_K:  3.441e-05  alpha:  5.635e-03  linmin:  7.965e-03  cgtest: -5.525e-02  t[s]:    102.01
FluidMinimize: Iter:  45  F: -0.014653643631501  |grad|_K:  2.643e-05  alpha:  2.595e-03  linmin:  4.323e-03  cgtest:  2.950e-02  t[s]:    102.17
FluidMinimize: 	Predicted alpha/alphaT>3.000000, increasing alphaT to 7.784791e-03.
FluidMinimize: Iter:  46  F: -0.014659503709499  |grad|_K:  2.336e-05  alpha:  8.883e-03  linmin: -4.601e-04  cgtest: -5.710e-02  t[s]:    102.40
FluidMinimize: Iter:  47  F: -0.014661706056811  |grad|_K:  3.261e-05  alpha:  4.008e-03  linmin: -2.701e-03  cgtest:  3.439e-02  t[s]:    102.56
FluidMinimize: Iter:  48  F: -0.014667201346515  |grad|_K:  2.247e-05  alpha:  5.174e-03  linmin: -6.236e-03  cgtest:  5.076e-02  t[s]:    102.71
FluidMinimize: Iter:  49  F: -0.014670125619332  |grad|_K:  2.862e-05  alpha:  5.785e-03  linmin: -5.984e-03  cgtest: -1.562e-02  t[s]:    102.86
FluidMinimize: Iter:  50  F: -0.014672280969326  |grad|_K:  2.352e-05  alpha:  2.523e-03  linmin: -4.091e-03  cgtest:  3.278e-02  t[s]:    103.03
FluidMinimize: 	Predicted alpha/alphaT>3.000000, increasing alphaT to 7.568647e-03.
FluidMinimize: Iter:  51  F: -0.014678313944898  |grad|_K:  2.979e-05  alpha:  1.105e-02  linmin:  5.278e-03  cgtest:  2.107e-02  t[s]:    103.25
FluidMinimize: Iter:  52  F: -0.014680173284311  |grad|_K:  2.637e-05  alpha:  2.473e-03  linmin:  1.429e-02  cgtest: -9.323e-02  t[s]:    103.41
FluidMinimize: Iter:  53  F: -0.014683968121184  |grad|_K:  2.448e-05  alpha:  6.277e-03  linmin:  3.846e-03  cgtest:  1.527e-01  t[s]:    103.57
FluidMinimize: Iter:  54  F: -0.014686819466012  |grad|_K:  3.424e-05  alpha:  4.943e-03  linmin:  1.597e-03  cgtest: -3.245e-03  t[s]:    103.73
FluidMinimize: Iter:  55  F: -0.014690097619174  |grad|_K:  2.156e-05  alpha:  3.012e-03  linmin:  1.395e-03  cgtest: -2.033e-02  t[s]:    103.90
FluidMinimize: Iter:  56  F: -0.014694016093477  |grad|_K:  2.567e-05  alpha:  8.513e-03  linmin: -1.133e-02  cgtest:  1.914e-02  t[s]:    104.07
FluidMinimize: Iter:  57  F: -0.014695470822610  |grad|_K:  1.939e-05  alpha:  2.028e-03  linmin: -7.053e-03  cgtest:  2.669e-02  t[s]:    104.24
FluidMinimize: 	Predicted alpha/alphaT>3.000000, increasing alphaT to 6.084405e-03.
FluidMinimize: Iter:  58  F: -0.014698450116188  |grad|_K:  2.138e-05  alpha:  7.732e-03  linmin:  6.979e-04  cgtest: -8.705e-03  t[s]:    104.48
FluidMinimize: Iter:  59  F: -0.014700351853126  |grad|_K:  3.007e-05  alpha:  4.417e-03  linmin:  1.382e-03  cgtest: -3.102e-03  t[s]:    104.64
FluidMinimize: Iter:  60  F: -0.014703909867522  |grad|_K:  1.945e-05  alpha:  4.084e-03  linmin:  2.030e-03  cgtest: -7.670e-02  t[s]:    104.80
FluidMinimize: Iter:  61  F: -0.014707488320152  |grad|_K:  2.798e-05  alpha:  1.018e-02  linmin:  4.796e-03  cgtest:  3.147e-02  t[s]:    104.96
FluidMinimize: Iter:  62  F: -0.014709023469468  |grad|_K:  2.175e-05  alpha:  2.336e-03  linmin:  1.294e-02  cgtest: -5.417e-02  t[s]:    105.13
FluidMinimize: 	Predicted alpha/alphaT>3.000000, increasing alphaT to 7.007802e-03.
FluidMinimize: Iter:  63  F: -0.014712396078865  |grad|_K:  1.825e-05  alpha:  8.052e-03  linmin:  2.884e-03  cgtest:  1.045e-01  t[s]:    105.36
FluidMinimize: Iter:  64  F: -0.014714434058798  |grad|_K:  2.288e-05  alpha:  6.368e-03  linmin:  1.340e-03  cgtest: -7.227e-03  t[s]:    105.52
FluidMinimize: Iter:  65  F: -0.014715617342322  |grad|_K:  1.681e-05  alpha:  2.433e-03  linmin:  2.788e-03  cgtest: -4.375e-02  t[s]:    105.67
FluidMinimize: Converged (|Delta F|<2.458966e-06 for 2 iters).

Fluid minimization # 3 changed total free energy by -4.080737e-04 at t[s]:    105.75

-------------------- Electronic Minimization # 3 ---------------------
	FillingsUpdate:  mu: -0.147089793  nElectrons: 18.000000
ElecMinimize: Iter:   0  F: -38.970093547551663  |grad|_K:  2.328e-06  alpha:  1.000e+00
	FillingsUpdate:  mu: -0.146682758  nElectrons: 18.000000
	SubspaceRotationAdjust: set factor to 0.785
ElecMinimize: Iter:   1  F: -38.970103441155182  |grad|_K:  1.153e-06  alpha:  5.968e-01  linmin: -4.558e-05  t[s]:    111.55
	FillingsUpdate:  mu: -0.146572689  nElectrons: 18.000000
	SubspaceRotationAdjust: set factor to 0.826
ElecMinimize: Iter:   2  F: -38.970106528375645  |grad|_K:  7.447e-07  alpha:  7.601e-01  linmin: -5.067e-05  t[s]:    115.23
	FillingsUpdate:  mu: -0.146456410  nElectrons: 18.000000
	SubspaceRotationAdjust: set factor to 0.656
ElecMinimize: Iter:   3  F: -38.970107455357073  |grad|_K:  3.268e-07  alpha:  5.471e-01  linmin: -1.093e-06  t[s]:    118.72
	FillingsUpdate:  mu: -0.146552625  nElectrons: 18.000000
	SubspaceRotationAdjust: set factor to 0.596
ElecMinimize: Iter:   4  F: -38.970107650843254  |grad|_K:  2.079e-07  alpha:  6.007e-01  linmin:  9.119e-07  t[s]:    122.33
ElecMinimize: Converged (|Delta F|<2.458966e-06 for 2 iters).
Setting wave functions to eigenvectors of Hamiltonian

Electronic minimization # 3 changed total free energy by -1.340464e-05 at t[s]:    122.37

---------------------- Fluid Minimization # 4 -----------------------
FluidMinimize: Iter:   0  F: -0.015081279895849  |grad|_K:  3.065e-05  alpha:  1.000e+00
FluidMinimize: 	Step increased F by 1.530965e-03, reducing alpha to 8.399203e-03.
FluidMinimize: 	Step increased F by 2.550710e-05, reducing alpha to 8.399203e-04.
FluidMinimize: Iter:   1  F: -0.015082355813724  |grad|_K:  1.543e-05  alpha:  8.399e-04  linmin: -6.895e-02  cgtest:  8.192e-01  t[s]:    122.81
FluidMinimize: Encountered beta<0, resetting CG.
FluidMinimize: 	Predicted alpha/alphaT>3.000000, increasing alphaT to 2.519761e-03.
FluidMinimize: Iter:   2  F: -0.015083319474902  |grad|_K:  1.910e-05  alpha:  4.145e-03  linmin: -2.421e-03  cgtest:  1.684e-02  t[s]:    123.05
FluidMinimize: Converged (|Delta F|<4.080737e-06 for 2 iters).

Fluid minimization # 4 changed total free energy by -2.039579e-06 at t[s]:    123.13

-------------------- Electronic Minimization # 4 ---------------------
	FillingsUpdate:  mu: -0.146290038  nElectrons: 18.000000
ElecMinimize: Iter:   0  F: -38.970109624046380  |grad|_K:  7.947e-07  alpha:  1.000e+00
	FillingsUpdate:  mu: -0.146349169  nElectrons: 18.000000
	SubspaceRotationAdjust: set factor to 0.73
ElecMinimize: Iter:   1  F: -38.970110398501575  |grad|_K:  2.461e-07  alpha:  3.979e-01  linmin: -3.909e-04  t[s]:    129.51
	FillingsUpdate:  mu: -0.146312937  nElectrons: 18.000000
	SubspaceRotationAdjust: set factor to 0.808
ElecMinimize: Iter:   2  F: -38.970110566030122  |grad|_K:  1.541e-07  alpha:  9.001e-01  linmin: -1.437e-05  t[s]:    133.11
ElecMinimize: Converged (|Delta F|<4.080737e-06 for 2 iters).
Setting wave functions to eigenvectors of Hamiltonian

Electronic minimization # 4 changed total free energy by -8.756078e-07 at t[s]:    133.15

Fluid<-->Electron self-consistency loop converged to 1.000000e-05 hartrees after 4 minimization pairs at t[s]:    133.15.

# Ionic positions in lattice coordinates:
ion H   0.625865855340137   0.717202738252553   0.330781986052699 1
ion H   0.319666152749135   0.462916138790224   0.330763812136101 1
ion C   0.546830000000000   0.553870000000000   0.330770000000000 0
ion O   0.599412153429453   0.352132666577773   0.330715455256744 1
ion O   0.383495849853255   0.614448040191864   0.330738274343548 1


# Forces in Lattice coordinates:
force H   0.013396641267905  -0.018599746248297   0.001423557113383 1
force H  -0.091455564654776  -0.018792787188924   0.000723484223700 1
force C  -0.126087529440290   0.160200814085191  -0.003257090738692 0
force O   0.061596937771101  -0.089873172130810   0.001466667846018 1
force O   0.141696625202941  -0.032983694107855   0.003689700924796 1

# Energy components:
   A_diel =       -0.0151262447416738
   Eewald =       25.5138574738062935
       EH =       57.9374960833655237
     Eloc =     -137.1201715944382897
      Enl =        5.2873227979420303
      Exc =       -9.6147174690556394
 Exc_core =        0.1585274996455396
       KE =       18.8827200290071460
  MuShift =       -0.0000000000000000
-------------------------------------
     Etot =      -38.9700914244690679
       TS =        0.0000191415610567
-------------------------------------
        F =      -38.9701105660301224

IonicMinimize: Iter:   0  F: -38.970110566030122  |grad|_K:  4.386e-03  t[s]:    133.79
IonicMinimize: None of the convergence criteria satisfied after 0 iterations.

#--- Lowdin population analysis ---
# oxidation-state H +0.218 +0.485
# oxidation-state C +0.455
# oxidation-state O -0.429 -0.457


Dumping '100_0-Solvated.ionpos' ... done
Dumping '100_0-Solvated.n' ... done
Dumping '100_0-Solvated.eigStats' ... 
	eMin: -1.015238 at state 0 ( [ +0.000000 +0.000000 +0.000000 ] spin 0 )
	HOMO: -0.245759 at state 2 ( [ +0.000000 +0.500000 +0.000000 ] spin 0 )
	mu  : -0.146313
	LUMO: -0.047005 at state 9 ( [ +0.500000 +0.500000 +0.000000 ] spin 0 )
	eMax: +0.063616 at state 2 ( [ +0.000000 +0.500000 +0.000000 ] spin 0 )
	HOMO-LUMO gap: +0.198754
	Optical gap  : +0.198803 at state 9 ( [ +0.500000 +0.500000 +0.000000 ] spin 0 )
Dumping '100_0-Solvated.Ecomponents' ... done
End date and time: Thu Jun 13 14:44:14 2019  (Duration: 0-0:02:13.98)
Done!
