--------------------------------------------------------------------------
Initialization of PSM library failed.

  Error: PSM is in the finalized state
--------------------------------------------------------------------------
[node2003][[30901,1],0][btl_openib.c:880:mca_btl_openib_add_procs] could not prepare openib device for use
--------------------------------------------------------------------------
The OpenFabrics (openib) BTL failed to initialize while trying to
allocate some locked memory.  This typically can indicate that the
memlock limits are set too low.  For most HPC installations, the
memlock limits should be set to "unlimited".  The failure occured
here:

  Local host:    node2003
  OMPI source:   btl_openib.c:753
  Function:      ompi_free_list_init_ex_new()
  Device:        qib0
  Memlock limit: 65536

You may need to consult with your system administrator to get this
problem fixed.  This FAQ entry on the Open MPI web site may also be
helpful:

    http://www.open-mpi.org/faq/?category=openfabrics#ib-locked-pages
--------------------------------------------------------------------------

*************** JDFTx 1.4.2 (git hash 74b6e54) ***************

Start date and time: Thu Apr 25 21:11:38 2019
Executable /home/jfm343/JDFTXDIR/build/jdftx with command-line: -i Vacuum.in
Running on hosts (process indices):  node2003.physics.cornell.edu (0)
Divided in process groups (process indices):  0 (0)
Resource initialization completed at t[s]:      0.00
Run totals: 1 processes, 12 threads, 0 GPUs


Input parsed successfully to the following command list (including defaults):

basis kpoint-dependent
coords-type Lattice
core-overlap-check vector
coulomb-interaction Slab 001
coulomb-truncation-embed 0 0 0
davidson-band-ratio 1.1
dump End State IonicPositions ElecDensity EigStats Ecomponents
dump-name 111_2-Vacuum.$VAR
elec-cutoff 20 100
elec-eigen-algo Davidson
elec-ex-corr gga-PBEsol
elec-smearing Fermi 0.01
electronic-minimize  \
	dirUpdateScheme      FletcherReeves \
	linminMethod         DirUpdateRecommended \
	nIterations          200 \
	history              15 \
	knormThreshold       0 \
	energyDiffThreshold  1e-08 \
	nEnergyDiff          2 \
	alphaTstart          1 \
	alphaTmin            1e-10 \
	updateTestStepSize   yes \
	alphaTreduceFactor   0.1 \
	alphaTincreaseFactor 3 \
	nAlphaAdjustMax      3 \
	wolfeEnergy          0.0001 \
	wolfeGradient        0.9 \
	fdTest               no
exchange-regularization WignerSeitzTruncated
fluid None
fluid-ex-corr lda-TF lda-PZ
fluid-gummel-loop 10 1.000000e-05
fluid-minimize  \
	dirUpdateScheme      PolakRibiere \
	linminMethod         DirUpdateRecommended \
	nIterations          100 \
	history              15 \
	knormThreshold       0 \
	energyDiffThreshold  0 \
	nEnergyDiff          2 \
	alphaTstart          1 \
	alphaTmin            1e-10 \
	updateTestStepSize   yes \
	alphaTreduceFactor   0.1 \
	alphaTincreaseFactor 3 \
	nAlphaAdjustMax      3 \
	wolfeEnergy          0.0001 \
	wolfeGradient        0.9 \
	fdTest               no
fluid-solvent H2O 55.338 ScalarEOS \
	epsBulk 78.4 \
	pMol 0.92466 \
	epsInf 1.77 \
	Pvap 1.06736e-10 \
	sigmaBulk 4.62e-05 \
	Rvdw 2.61727 \
	Res 1.42 \
	tauNuc 343133 \
	omegaEl 0.55124 \
	gammaEl 0.257245
forces-output-coords Positions
ion O   0.292000000000000   0.444000000000000   0.311000000000000 1
ion C   0.500000000000000   0.500000000000000   0.282000000000000 1
ion H   0.700000000000000   0.554000000000000   0.303000000000000 1
ion Pt   0.333300000000000   0.166700000000000  -0.200100000000000 0
ion Pt   0.333300000000000   0.666700000000000  -0.200100000000000 0
ion Pt   0.833300000000000   0.166700000000000  -0.200100000000000 0
ion Pt   0.833300000000000   0.666700000000000  -0.200100000000000 0
ion Pt   0.000000000000000   0.000000000000000  -0.100000000000000 0
ion Pt   0.000000000000000   0.500000000000000  -0.100000000000000 0
ion Pt   0.500000000000000   0.000000000000000  -0.100000000000000 0
ion Pt   0.500000000000000   0.500000000000000  -0.100000000000000 0
ion Pt   0.166700000000000   0.333300000000000   0.000000000000000 1
ion Pt   0.166700000000000   0.833300000000000   0.000000000000000 1
ion Pt   0.666700000000000   0.333300000000000   0.000000000000000 1
ion Pt   0.666700000000000   0.833300000000000   0.000000000000000 1
ion Pt   0.333300000000000   0.166700000000000   0.100000000000000 1
ion Pt   0.333300000000000   0.666700000000000   0.100000000000000 1
ion Pt   0.833300000000000   0.166700000000000   0.100000000000000 1
ion Pt   0.833300000000000   0.666700000000000   0.100000000000000 1
ion Pt   0.000000000000000   0.000000000000000   0.200100000000000 1
ion Pt   0.000000000000000   0.500000000000000   0.200100000000000 1
ion Pt   0.500000000000000   0.000000000000000   0.200100000000000 1
ion Pt   0.500000000000000   0.500000000000000   0.200100000000000 1
ion-species GBRV/$ID_pbesol.uspp
ion-width 0
ionic-minimize  \
	dirUpdateScheme      L-BFGS \
	linminMethod         DirUpdateRecommended \
	nIterations          5 \
	history              15 \
	knormThreshold       0.0001 \
	energyDiffThreshold  1e-06 \
	nEnergyDiff          2 \
	alphaTstart          1 \
	alphaTmin            1e-10 \
	updateTestStepSize   yes \
	alphaTreduceFactor   0.1 \
	alphaTincreaseFactor 3 \
	nAlphaAdjustMax      3 \
	wolfeEnergy          0.0001 \
	wolfeGradient        0.9 \
	fdTest               no
kpoint   0.000000000000   0.000000000000   0.000000000000  1.00000000000000
kpoint-folding 4 4 1 
latt-move-scale 1 1 1
latt-scale 1 1 1 
lattice Hexagonal 10.4793 42.7686
lattice-minimize  \
	dirUpdateScheme      L-BFGS \
	linminMethod         DirUpdateRecommended \
	nIterations          0 \
	history              15 \
	knormThreshold       0 \
	energyDiffThreshold  1e-06 \
	nEnergyDiff          2 \
	alphaTstart          1 \
	alphaTmin            1e-10 \
	updateTestStepSize   yes \
	alphaTreduceFactor   0.1 \
	alphaTincreaseFactor 3 \
	nAlphaAdjustMax      3 \
	wolfeEnergy          0.0001 \
	wolfeGradient        0.9 \
	fdTest               no
lcao-params -1 1e-06 0.01
pcm-variant GLSSA13
spintype no-spin
subspace-rotation-factor 1 yes
symmetries automatic
symmetry-threshold 0.0001



---------- Setting up symmetries ----------

Found 24 point-group symmetries of the bravais lattice
Found 1 space-group symmetries with basis
Applied RMS atom displacement 0 bohrs to make symmetries exact.

---------- Initializing the Grid ----------
R = 
[    10.4793   -5.23966          0  ]
[          0    9.07536          0  ]
[          0          0    42.7686  ]
unit cell volume = 4067.45
G =
[   0.599579   0.346167         -0  ]
[          0   0.692335          0  ]
[          0         -0   0.146911  ]
Minimum fftbox size, Smin = [  48  48  196  ]
Chosen fftbox size, S = [  48  48  196  ]

---------- Initializing tighter grid for wavefunction operations ----------
R = 
[    10.4793   -5.23966          0  ]
[          0    9.07536          0  ]
[          0          0    42.7686  ]
unit cell volume = 4067.45
G =
[   0.599579   0.346167         -0  ]
[          0   0.692335          0  ]
[          0         -0   0.146911  ]
Minimum fftbox size, Smin = [  44  44  176  ]
Chosen fftbox size, S = [  48  48  180  ]

---------- Exchange Correlation functional ----------
Initalized PBEsol GGA exchange.
Initalized PBEsol GGA correlation.

---------- Setting up pseudopotentials ----------
Width of ionic core gaussian charges (only for fluid interactions / plotting) set to 0

Reading pseudopotential file '/home/jfm343/JDFTXDIR/build/pseudopotentials/GBRV/o_pbesol.uspp':
  Title: O.  Created by USPP 7.3.6 on 3-2-2014
  Reference state energy: -15.849885.  6 valence electrons in orbitals:
    |200>  occupation: 2  eigenvalue: -0.873214
    |210>  occupation: 4  eigenvalue: -0.330058
  lMax: 2  lLocal: 2  QijEcut: 6
  5 projectors sampled on a log grid with 511 points:
    l: 0  eig: -0.873214  rCut: 1.25
    l: 0  eig: 0.000000  rCut: 1.25
    l: 1  eig: -0.330058  rCut: 1.25
    l: 1  eig: 0.000000  rCut: 1.25
    l: 2  eig: 1.000000  rCut: 1.25
  Partial core density with radius 0.7
  Transforming core density to a uniform radial grid of dG=0.02 with 1615 points.
  Transforming local potential to a uniform radial grid of dG=0.02 with 1615 points.
  Transforming nonlocal projectors to a uniform radial grid of dG=0.02 with 432 points.
  Transforming density augmentations to a uniform radial grid of dG=0.02 with 1615 points.
  Transforming atomic orbitals to a uniform radial grid of dG=0.02 with 432 points.
  Core radius for overlap checks: 1.25 bohrs.

Reading pseudopotential file '/home/jfm343/JDFTXDIR/build/pseudopotentials/GBRV/c_pbesol.uspp':
  Title: C.  Created by USPP 7.3.6 on 3-2-2014
  Reference state energy: -5.383511.  4 valence electrons in orbitals:
    |200>  occupation: 2  eigenvalue: -0.501126
    |210>  occupation: 2  eigenvalue: -0.192448
  lMax: 1  lLocal: 2  QijEcut: 5
  4 projectors sampled on a log grid with 503 points:
    l: 0  eig: -0.501126  rCut: 1.3
    l: 0  eig: 0.000000  rCut: 1.3
    l: 1  eig: -0.192448  rCut: 1.3
    l: 1  eig: 0.000000  rCut: 1.3
  Partial core density with radius 1.1
  Transforming core density to a uniform radial grid of dG=0.02 with 1615 points.
  Transforming local potential to a uniform radial grid of dG=0.02 with 1615 points.
  Transforming nonlocal projectors to a uniform radial grid of dG=0.02 with 432 points.
  Transforming density augmentations to a uniform radial grid of dG=0.02 with 1615 points.
  Transforming atomic orbitals to a uniform radial grid of dG=0.02 with 432 points.
  Core radius for overlap checks: 1.30 bohrs.

Reading pseudopotential file '/home/jfm343/JDFTXDIR/build/pseudopotentials/GBRV/h_pbesol.uspp':
  Title: H.  Created by USPP 7.3.6 on 22-9-15
  Reference state energy: -0.449841.  1 valence electrons in orbitals:
    |100>  occupation: 1  eigenvalue: -0.232690
  lMax: 0  lLocal: 1  QijEcut: 6
  2 projectors sampled on a log grid with 395 points:
    l: 0  eig: -0.232690  rCut: 1.2
    l: 0  eig: 1.000000  rCut: 1.2
  Transforming local potential to a uniform radial grid of dG=0.02 with 1615 points.
  Transforming nonlocal projectors to a uniform radial grid of dG=0.02 with 432 points.
  Transforming density augmentations to a uniform radial grid of dG=0.02 with 1615 points.
  Transforming atomic orbitals to a uniform radial grid of dG=0.02 with 432 points.
  Core radius for overlap checks: 1.20 bohrs.

Reading pseudopotential file '/home/jfm343/JDFTXDIR/build/pseudopotentials/GBRV/pt_pbesol.uspp':
  Title: Pt.  Created by USPP 7.3.6 on 22-9-15
  Reference state energy: -104.899005.  16 valence electrons in orbitals:
    |510>  occupation: 6  eigenvalue: -2.158847
    |520>  occupation: 9.5  eigenvalue: -0.336311
    |600>  occupation: 0  eigenvalue: -0.320324
    |610>  occupation: 0  eigenvalue: -0.119800
  lMax: 2  lLocal: 3  QijEcut: 5.5
  6 projectors sampled on a log grid with 745 points:
    l: 0  eig: -0.320324  rCut: 2.45
    l: 0  eig: 1.500000  rCut: 2.45
    l: 1  eig: -2.158847  rCut: 1.6
    l: 1  eig: -0.119800  rCut: 1.6
    l: 2  eig: -0.500000  rCut: 1.6
    l: 2  eig: -0.336311  rCut: 1.6
  Partial core density with radius 1.1
  Transforming core density to a uniform radial grid of dG=0.02 with 1615 points.
  Transforming local potential to a uniform radial grid of dG=0.02 with 1615 points.
  Transforming nonlocal projectors to a uniform radial grid of dG=0.02 with 432 points.
  Transforming density augmentations to a uniform radial grid of dG=0.02 with 1615 points.
  Transforming atomic orbitals to a uniform radial grid of dG=0.02 with 432 points.
  Core radius for overlap checks: 2.45 bohrs.

Initialized 4 species with 23 total atoms.

Folded 1 k-points by 4x4x1 to 16 k-points.

---------- Setting up k-points, bands, fillings ----------
Adding inversion symmetry to k-mesh for non-inversion-symmetric unit cell.
Reduced to 10 k-points under symmetry. 
Computing the number of bands and number of electrons
Calculating initial fillings.
nElectrons: 331.000000   nBands: 249   nStates: 10

----- Setting up reduced wavefunction bases (one per k-point) -----
average nbasis = 17373.562 , ideal nbasis = 17376.449

---------- Setting up coulomb interaction ----------
Setting up double-sized grid for truncated Coulomb potentials:
R = 
[    10.4793   -5.23966          0  ]
[          0    9.07536          0  ]
[          0          0    85.5372  ]
unit cell volume = 8134.9
G =
[   0.599579   0.346167         -0  ]
[          0   0.692335          0  ]
[          0         -0  0.0734556  ]
Chosen fftbox size, S = [  48  48  392  ]
Integer grid location selected as the embedding center:
   Grid: [  0  0  0  ]
   Lattice: [  0  0  0  ]
   Cartesian: [  0  0  0  ]
Constructing Wigner-Seitz cell: 8 faces (6 quadrilaterals, 2 hexagons)
Range-separation parameter for embedded mesh potentials due to point charges: 0.589462 bohrs.
Initialized slab truncation along lattice direction 001

---------- Setting up 2D ewald sum ----------
Optimum gaussian width for ewald sums = 5.817695 bohr.
Real space sums over 289 unit cells with max indices [  8  8  0  ]
Reciprocal space sums over 81 terms with max indices [  4  4  0  ]

---------- Allocating electronic variables ----------
Initializing wave functions:  linear combination of atomic orbitals
O pseudo-atom occupations:   s ( 2 )  p ( 4 )
C pseudo-atom occupations:   s ( 2 )  p ( 2 )
H pseudo-atom occupations:   s ( 1 )
Pt pseudo-atom occupations:   s ( 0 )  p ( 6 0 )  d ( 10 )
	FillingsUpdate:  mu: -2.736972570  nElectrons: 331.000000
LCAOMinimize: Iter:   0  F: -1789.4954266054435266  |grad|_K:  3.989e-02  alpha:  1.000e+00
LCAOMinimize: 	Step increased F by 5.132185e+02, reducing alpha to 1.251342e-02.
	FillingsUpdate:  mu: -1.581048913  nElectrons: 331.000000
LCAOMinimize: Iter:   1  F: -1794.1367795910234690  |grad|_K:  4.085e-02  alpha:  1.251e-02  linmin:  8.375e-02  cgtest: -3.157e-01  t[s]:    384.97
	FillingsUpdate:  mu: -0.642625280  nElectrons: 331.000000
LCAOMinimize: Iter:   2  F: -1795.5908912047045760  |grad|_K:  4.419e-02  alpha:  5.699e-03  linmin:  1.945e-03  cgtest:  9.065e-01  t[s]:    479.27
	FillingsUpdate:  mu: -0.842168979  nElectrons: 331.000000
LCAOMinimize: Iter:   3  F: -1798.6820062260226223  |grad|_K:  9.105e-03  alpha:  5.050e-03  linmin:  2.764e-02  cgtest: -9.057e-02  t[s]:    576.57
LCAOMinimize: 	Wrong curvature in test step, increasing alphaT to 1.514905e-02.
	FillingsUpdate:  mu: -0.847173432  nElectrons: 331.000000
LCAOMinimize: Iter:   4  F: -1798.9378291648718005  |grad|_K:  8.855e-03  alpha: -1.940e+00  linmin: -2.490e-01  cgtest:  9.724e-01  t[s]:    652.17
LCAOMinimize: 	Step increased F by 1.838907e+00, reducing alpha to 1.220234e-02.
	FillingsUpdate:  mu: -0.849137906  nElectrons: 331.000000
LCAOMinimize: Iter:   5  F: -1799.4547182438536765  |grad|_K:  8.999e-03  alpha:  1.220e-02  linmin: -1.765e-01  cgtest:  6.177e-01  t[s]:    819.48
	FillingsUpdate:  mu: -0.495427332  nElectrons: 331.000000
LCAOMinimize: Iter:   6  F: -1800.3574346178218093  |grad|_K:  2.023e-02  alpha:  3.318e-02  linmin:  2.800e-02  cgtest: -3.306e-01  t[s]:    913.45
	FillingsUpdate:  mu: -0.423773962  nElectrons: 331.000000
LCAOMinimize: Iter:   7  F: -1800.5860429664439835  |grad|_K:  2.196e-02  alpha:  3.161e-03  linmin: -2.213e-03  cgtest:  1.021e+00  t[s]:   1009.54
	FillingsUpdate:  mu: -0.625138056  nElectrons: 331.000000
LCAOMinimize: Iter:   8  F: -1801.4164691231126199  |grad|_K:  5.108e-03  alpha:  5.559e-03  linmin:  2.711e-02  cgtest: -1.724e-01  t[s]:   1103.55
LCAOMinimize: 	Predicted alpha/alphaT>3.000000, increasing alphaT to 1.667820e-02.
	FillingsUpdate:  mu: -0.351646029  nElectrons: 331.000000
LCAOMinimize: Iter:   9  F: -1801.6937914732898207  |grad|_K:  4.029e-03  alpha:  3.490e-02  linmin: -7.497e-03  cgtest:  1.473e-01  t[s]:   1222.40
	FillingsUpdate:  mu: -0.267801105  nElectrons: 331.000000
LCAOMinimize: Iter:  10  F: -1801.7942960355680952  |grad|_K:  6.638e-03  alpha:  2.010e-02  linmin:  1.437e-03  cgtest: -3.881e-02  t[s]:   1317.93
	FillingsUpdate:  mu: -0.266801509  nElectrons: 331.000000
LCAOMinimize: Iter:  11  F: -1802.1089672349098691  |grad|_K:  3.335e-03  alpha:  2.460e-02  linmin:  4.481e-02  cgtest: -6.905e-01  t[s]:   1412.65
	FillingsUpdate:  mu: -0.242675559  nElectrons: 331.000000
LCAOMinimize: Iter:  12  F: -1802.1203985474510318  |grad|_K:  2.740e-03  alpha:  7.332e-03  linmin:  6.469e-04  cgtest:  9.170e-01  t[s]:   1508.10
LCAOMinimize: Encountered beta<0, resetting CG.
	FillingsUpdate:  mu: -0.165578388  nElectrons: 331.000000
LCAOMinimize: Iter:  13  F: -1802.1628581008571928  |grad|_K:  3.627e-03  alpha:  1.804e-02  linmin: -1.223e-03  cgtest:  6.572e-03  t[s]:   1601.89
	FillingsUpdate:  mu: -0.157472966  nElectrons: 331.000000
LCAOMinimize: Iter:  14  F: -1802.2291366938320607  |grad|_K:  2.180e-03  alpha:  1.572e-02  linmin:  1.349e-02  cgtest: -1.502e-01  t[s]:   1696.59
	FillingsUpdate:  mu: -0.228407228  nElectrons: 331.000000
LCAOMinimize: Iter:  15  F: -1802.3015333521700541  |grad|_K:  1.591e-03  alpha:  4.640e-02  linmin: -3.967e-02  cgtest:  5.712e-01  t[s]:   1792.57
	FillingsUpdate:  mu: -0.275584501  nElectrons: 331.000000
LCAOMinimize: Iter:  16  F: -1802.3244269830217945  |grad|_K:  1.994e-03  alpha:  2.779e-02  linmin: -9.296e-05  cgtest: -3.371e-02  t[s]:   1883.99
	FillingsUpdate:  mu: -0.319774437  nElectrons: 331.000000
LCAOMinimize: Iter:  17  F: -1802.3363786631141465  |grad|_K:  1.386e-03  alpha:  1.003e-02  linmin:  6.250e-03  cgtest: -9.136e-03  t[s]:   1978.87
LCAOMinimize: 	Predicted alpha/alphaT>3.000000, increasing alphaT to 3.009426e-02.
LCAOMinimize: 	Predicted alpha/alphaT>3.000000, increasing alphaT to 9.028279e-02.
	FillingsUpdate:  mu: -0.225353352  nElectrons: 331.000000
LCAOMinimize: Iter:  18  F: -1802.3961334487396471  |grad|_K:  1.183e-03  alpha:  1.025e-01  linmin: -1.776e-03  cgtest:  1.495e-01  t[s]:   2123.32
	FillingsUpdate:  mu: -0.183358156  nElectrons: 331.000000
LCAOMinimize: Iter:  19  F: -1802.4143435818248236  |grad|_K:  2.466e-03  alpha:  4.127e-02  linmin:  1.194e-05  cgtest: -1.274e-03  t[s]:   2216.26
	FillingsUpdate:  mu: -0.202624384  nElectrons: 331.000000
LCAOMinimize: Iter:  20  F: -1802.4369563040597768  |grad|_K:  6.066e-04  alpha:  1.163e-02  linmin: -5.823e-03  cgtest:  1.183e-01  t[s]:   2312.97
LCAOMinimize: 	Predicted alpha/alphaT>3.000000, increasing alphaT to 3.488696e-02.
	FillingsUpdate:  mu: -0.242463037  nElectrons: 331.000000
LCAOMinimize: Iter:  21  F: -1802.4420312692948301  |grad|_K:  6.617e-04  alpha:  4.350e-02  linmin: -3.023e-03  cgtest:  1.213e-02  t[s]:   2434.20
	FillingsUpdate:  mu: -0.249217953  nElectrons: 331.000000
LCAOMinimize: Iter:  22  F: -1802.4433489527921211  |grad|_K:  5.183e-04  alpha:  9.352e-03  linmin: -2.011e-03  cgtest: -1.184e-02  t[s]:   2527.54
LCAOMinimize: 	Predicted alpha/alphaT>3.000000, increasing alphaT to 2.805619e-02.
	FillingsUpdate:  mu: -0.244869819  nElectrons: 331.000000
LCAOMinimize: Iter:  23  F: -1802.4459829566483222  |grad|_K:  1.842e-04  alpha:  3.101e-02  linmin: -2.547e-03  cgtest:  2.552e-02  t[s]:   2645.51
	FillingsUpdate:  mu: -0.246842531  nElectrons: 331.000000
LCAOMinimize: Iter:  24  F: -1802.4464343742081383  |grad|_K:  4.267e-04  alpha:  4.235e-02  linmin: -1.816e-04  cgtest: -2.576e-03  t[s]:   2741.68
	FillingsUpdate:  mu: -0.254466971  nElectrons: 331.000000
LCAOMinimize: Iter:  25  F: -1802.4473772208109494  |grad|_K:  1.605e-04  alpha:  1.643e-02  linmin: -8.998e-04  cgtest:  3.896e-03  t[s]:   2835.05
LCAOMinimize: 	Predicted alpha/alphaT>3.000000, increasing alphaT to 4.929798e-02.
	FillingsUpdate:  mu: -0.244022809  nElectrons: 331.000000
LCAOMinimize: Iter:  26  F: -1802.4479304562730704  |grad|_K:  2.423e-04  alpha:  6.843e-02  linmin: -8.877e-05  cgtest: -1.228e-03  t[s]:   2953.68
	FillingsUpdate:  mu: -0.243811045  nElectrons: 331.000000
LCAOMinimize: Iter:  27  F: -1802.4481082855354543  |grad|_K:  1.984e-04  alpha:  9.617e-03  linmin: -6.400e-04  cgtest:  1.148e-02  t[s]:   3046.54
LCAOMinimize: 	Predicted alpha/alphaT>3.000000, increasing alphaT to 2.885025e-02.
	FillingsUpdate:  mu: -0.251402526  nElectrons: 331.000000
LCAOMinimize: Iter:  28  F: -1802.4485044863354233  |grad|_K:  6.609e-05  alpha:  3.203e-02  linmin:  3.817e-04  cgtest: -7.653e-02  t[s]:   3163.64
	FillingsUpdate:  mu: -0.249710294  nElectrons: 331.000000
LCAOMinimize: Iter:  29  F: -1802.4485756569381465  |grad|_K:  1.444e-04  alpha:  5.222e-02  linmin: -7.462e-06  cgtest:  2.070e-03  t[s]:   3257.23
	FillingsUpdate:  mu: -0.248841783  nElectrons: 331.000000
LCAOMinimize: Iter:  30  F: -1802.4486388692773744  |grad|_K:  2.727e-05  alpha:  9.657e-03  linmin: -1.794e-03  cgtest:  1.465e-02  t[s]:   3352.72
LCAOMinimize: None of the convergence criteria satisfied after 30 iterations.


---- Citations for features of the code used in this run ----

   Software package:
      R. Sundararaman, K. Letchworth-Weaver, K.A. Schwarz, D. Gunceler, Y. Ozhabes and T.A. Arias, 'JDFTx: software for joint density-functional theory', SoftwareX 6, 278 (2017)

   gga-PBEsol exchange-correlation functional:
      J.P. Perdew et al., Phys. Rev. Lett. 100, 136406 (2008)

   Pseudopotentials:
      KF Garrity, JW Bennett, KM Rabe and D Vanderbilt, Comput. Mater. Sci. 81, 446 (2014)

   Truncated Coulomb potentials:
      R. Sundararaman and T.A. Arias, Phys. Rev. B 87, 165122 (2013)

   Total energy minimization with Auxiliary Hamiltonian:
      C. Freysoldt, S. Boeck, and J. Neugebauer, Phys. Rev. B 79, 241103(R) (2009)

This list may not be complete. Please suggest additional citations or
report any other bugs at https://github.com/shankar1729/jdftx/issues

Initialization completed successfully at t[s]:   3429.83


-------- Electronic minimization -----------
	FillingsUpdate:  mu: -0.248841782  nElectrons: 331.000000
ElecMinimize: Iter:   0  F: -1802.448638869242131  |grad|_K:  1.371e-04  alpha:  1.000e+00
	FillingsUpdate:  mu: -0.213269787  nElectrons: 331.000000
	SubspaceRotationAdjust: set factor to 0.988
ElecMinimize: Iter:   1  F: -1802.802837660783098  |grad|_K:  7.037e-05  alpha:  4.382e-01  linmin:  6.748e-05  t[s]:   3964.85
	FillingsUpdate:  mu: -0.145059442  nElectrons: 331.000000
	SubspaceRotationAdjust: set factor to 0.525
ElecMinimize: Iter:   2  F: -1802.829367620358653  |grad|_K:  1.939e-04  alpha:  1.197e-01  linmin: -8.896e-05  t[s]:   4336.72
	FillingsUpdate:  mu: -0.140265057  nElectrons: 331.000000
	SubspaceRotationAdjust: set factor to 0.297
ElecMinimize: Iter:   3  F: -1802.848028690657884  |grad|_K:  1.120e-04  alpha:  1.121e-02  linmin:  5.977e-05  t[s]:   4705.65
ElecMinimize: 	Predicted alpha/alphaT>3.000000, increasing alphaT to 3.364189e-02.
	FillingsUpdate:  mu: -0.229216121  nElectrons: 331.000000
	SubspaceRotationAdjust: set factor to 0.17
ElecMinimize: Iter:   4  F: -1802.881703323409511  |grad|_K:  4.103e-05  alpha:  6.294e-02  linmin:  2.651e-05  t[s]:   5164.41
	FillingsUpdate:  mu: -0.224356283  nElectrons: 331.000000
	SubspaceRotationAdjust: set factor to 0.115
	SubspaceRotationAdjust: resetting CG because factor has changed by 0.115255
ElecMinimize: 	State modified externally: resetting search direction.
ElecMinimize: Iter:   5  F: -1802.887221579055222  |grad|_K:  4.442e-05  alpha:  7.571e-02
	FillingsUpdate:  mu: -0.228890069  nElectrons: 331.000000
	SubspaceRotationAdjust: set factor to 0.138
ElecMinimize: Iter:   6  F: -1802.892437316349515  |grad|_K:  2.781e-05  alpha:  6.065e-02  linmin:  1.818e-05  t[s]:   6037.50
ElecMinimize: 	Predicted alpha/alphaT>3.000000, increasing alphaT to 1.819374e-01.
	FillingsUpdate:  mu: -0.208971189  nElectrons: 331.000000
	SubspaceRotationAdjust: set factor to 0.122
ElecMinimize: Iter:   7  F: -1802.900497200786504  |grad|_K:  1.508e-05  alpha:  2.394e-01  linmin:  1.888e-05  t[s]:   6487.43
	FillingsUpdate:  mu: -0.224547334  nElectrons: 331.000000
	SubspaceRotationAdjust: set factor to 0.0919
ElecMinimize: Iter:   8  F: -1802.904594951959552  |grad|_K:  1.212e-05  alpha:  4.146e-01  linmin:  4.194e-05  t[s]:   6857.62
	FillingsUpdate:  mu: -0.212068117  nElectrons: 331.000000
	SubspaceRotationAdjust: set factor to 0.0595
ElecMinimize: Iter:   9  F: -1802.906167328718311  |grad|_K:  1.354e-05  alpha:  2.460e-01  linmin: -5.261e-06  t[s]:   7226.21
	FillingsUpdate:  mu: -0.207751224  nElectrons: 331.000000
	SubspaceRotationAdjust: set factor to 0.0387
ElecMinimize: Iter:  10  F: -1802.906887182382434  |grad|_K:  6.818e-06  alpha:  8.972e-02  linmin: -2.108e-05  t[s]:   7599.92
ElecMinimize: 	Predicted alpha/alphaT>3.000000, increasing alphaT to 2.691521e-01.
	FillingsUpdate:  mu: -0.207931409  nElectrons: 331.000000
	SubspaceRotationAdjust: set factor to 0.035
ElecMinimize: Iter:  11  F: -1802.907644133174244  |grad|_K:  5.351e-06  alpha:  3.729e-01  linmin:  1.933e-05  t[s]:   8059.02
	FillingsUpdate:  mu: -0.210625940  nElectrons: 331.000000
	SubspaceRotationAdjust: set factor to 0.0279
ElecMinimize: Iter:  12  F: -1802.907909558656456  |grad|_K:  4.547e-06  alpha:  2.132e-01  linmin: -4.412e-07  t[s]:   8427.34
	FillingsUpdate:  mu: -0.214662690  nElectrons: 331.000000
	SubspaceRotationAdjust: set factor to 0.0364
ElecMinimize: Iter:  13  F: -1802.908343293979215  |grad|_K:  4.793e-06  alpha:  4.824e-01  linmin:  2.295e-06  t[s]:   8798.52
	FillingsUpdate:  mu: -0.214268819  nElectrons: 331.000000
	SubspaceRotationAdjust: set factor to 0.0326
ElecMinimize: Iter:  14  F: -1802.908731647673903  |grad|_K:  5.672e-06  alpha:  3.888e-01  linmin: -1.096e-05  t[s]:   9166.18
	FillingsUpdate:  mu: -0.212946922  nElectrons: 331.000000
	SubspaceRotationAdjust: set factor to 0.0351
ElecMinimize: Iter:  15  F: -1802.909206764202281  |grad|_K:  4.553e-06  alpha:  3.387e-01  linmin: -1.862e-05  t[s]:   9535.34
	FillingsUpdate:  mu: -0.211645626  nElectrons: 331.000000
	SubspaceRotationAdjust: set factor to 0.0343
ElecMinimize: Iter:  16  F: -1802.909741439463232  |grad|_K:  5.967e-06  alpha:  5.819e-01  linmin: -4.802e-05  t[s]:   9899.98
	FillingsUpdate:  mu: -0.211662544  nElectrons: 331.000000
	SubspaceRotationAdjust: set factor to 0.0261
ElecMinimize: Iter:  17  F: -1802.910159365533445  |grad|_K:  4.748e-06  alpha:  2.670e-01  linmin:  1.472e-05  t[s]:  10268.17
	FillingsUpdate:  mu: -0.211163454  nElectrons: 331.000000
	SubspaceRotationAdjust: set factor to 0.0314
ElecMinimize: Iter:  18  F: -1802.910706233539031  |grad|_K:  4.318e-06  alpha:  5.558e-01  linmin: -2.842e-05  t[s]:  10633.79
	FillingsUpdate:  mu: -0.210898960  nElectrons: 331.000000
	SubspaceRotationAdjust: set factor to 0.0262
ElecMinimize: Iter:  19  F: -1802.910999141375214  |grad|_K:  3.687e-06  alpha:  3.556e-01  linmin:  2.001e-06  t[s]:  10998.86
	FillingsUpdate:  mu: -0.210499525  nElectrons: 331.000000
	SubspaceRotationAdjust: set factor to 0.0216
ElecMinimize: Iter:  20  F: -1802.911206449280826  |grad|_K:  2.792e-06  alpha:  3.503e-01  linmin: -1.229e-06  t[s]:  11371.02
	FillingsUpdate:  mu: -0.210538424  nElectrons: 331.000000
	SubspaceRotationAdjust: set factor to 0.0244
ElecMinimize: Iter:  21  F: -1802.911346622247720  |grad|_K:  2.146e-06  alpha:  4.123e-01  linmin: -6.277e-06  t[s]:  11744.04
	FillingsUpdate:  mu: -0.210632673  nElectrons: 331.000000
	SubspaceRotationAdjust: set factor to 0.0224
ElecMinimize: Iter:  22  F: -1802.911429822341233  |grad|_K:  1.691e-06  alpha:  4.134e-01  linmin: -7.902e-06  t[s]:  12112.28
	FillingsUpdate:  mu: -0.210414243  nElectrons: 331.000000
	SubspaceRotationAdjust: set factor to 0.0198
ElecMinimize: Iter:  23  F: -1802.911477003893879  |grad|_K:  1.261e-06  alpha:  3.780e-01  linmin: -3.649e-06  t[s]:  12483.05
	FillingsUpdate:  mu: -0.210206192  nElectrons: 331.000000
	SubspaceRotationAdjust: set factor to 0.0224
ElecMinimize: Iter:  24  F: -1802.911505465495338  |grad|_K:  9.537e-07  alpha:  4.099e-01  linmin: -3.508e-06  t[s]:  12852.81
	FillingsUpdate:  mu: -0.210077666  nElectrons: 331.000000
	SubspaceRotationAdjust: set factor to 0.0228
ElecMinimize: Iter:  25  F: -1802.911523174342619  |grad|_K:  7.942e-07  alpha:  4.463e-01  linmin: -1.916e-06  t[s]:  13218.99
	FillingsUpdate:  mu: -0.210013371  nElectrons: 331.000000
	SubspaceRotationAdjust: set factor to 0.0218
ElecMinimize: Iter:  26  F: -1802.911534962929863  |grad|_K:  6.698e-07  alpha:  4.287e-01  linmin: -1.744e-07  t[s]:  13588.00
	FillingsUpdate:  mu: -0.210035207  nElectrons: 331.000000
	SubspaceRotationAdjust: set factor to 0.025
ElecMinimize: Iter:  27  F: -1802.911544280039152  |grad|_K:  5.991e-07  alpha:  4.766e-01  linmin: -2.550e-07  t[s]:  13954.52
	FillingsUpdate:  mu: -0.209981065  nElectrons: 331.000000
	SubspaceRotationAdjust: set factor to 0.027
ElecMinimize: Iter:  28  F: -1802.911552826792331  |grad|_K:  6.177e-07  alpha:  5.465e-01  linmin: -3.017e-07  t[s]:  14326.44
	FillingsUpdate:  mu: -0.209897856  nElectrons: 331.000000
	SubspaceRotationAdjust: set factor to 0.0246
ElecMinimize: Iter:  29  F: -1802.911561116057101  |grad|_K:  6.643e-07  alpha:  4.985e-01  linmin:  2.679e-07  t[s]:  14695.92
	FillingsUpdate:  mu: -0.209942479  nElectrons: 331.000000
	SubspaceRotationAdjust: set factor to 0.0251
ElecMinimize: Iter:  30  F: -1802.911570928784158  |grad|_K:  6.438e-07  alpha:  5.105e-01  linmin: -1.056e-07  t[s]:  15067.18
	FillingsUpdate:  mu: -0.209787961  nElectrons: 331.000000
	SubspaceRotationAdjust: set factor to 0.0275
ElecMinimize: Iter:  31  F: -1802.911582177951459  |grad|_K:  6.550e-07  alpha:  6.229e-01  linmin:  4.476e-08  t[s]:  15437.64
	FillingsUpdate:  mu: -0.209460171  nElectrons: 331.000000
	SubspaceRotationAdjust: set factor to 0.0243
ElecMinimize: Iter:  32  F: -1802.911591463791410  |grad|_K:  6.792e-07  alpha:  4.967e-01  linmin:  4.097e-07  t[s]:  15801.88
	FillingsUpdate:  mu: -0.209371710  nElectrons: 331.000000
	SubspaceRotationAdjust: set factor to 0.0213
ElecMinimize: Iter:  33  F: -1802.911599631158651  |grad|_K:  5.594e-07  alpha:  4.066e-01  linmin:  2.155e-07  t[s]:  16175.74
	FillingsUpdate:  mu: -0.209448933  nElectrons: 331.000000
	SubspaceRotationAdjust: set factor to 0.0241
ElecMinimize: Iter:  34  F: -1802.911606997301533  |grad|_K:  4.666e-07  alpha:  5.407e-01  linmin:  4.711e-07  t[s]:  16543.55
	FillingsUpdate:  mu: -0.209415249  nElectrons: 331.000000
	SubspaceRotationAdjust: set factor to 0.0228
ElecMinimize: Iter:  35  F: -1802.911611385946571  |grad|_K:  4.042e-07  alpha:  4.631e-01  linmin:  9.161e-09  t[s]:  16912.65
	FillingsUpdate:  mu: -0.209415106  nElectrons: 331.000000
	SubspaceRotationAdjust: set factor to 0.0202
ElecMinimize: Iter:  36  F: -1802.911614374391547  |grad|_K:  3.261e-07  alpha:  4.198e-01  linmin: -1.952e-07  t[s]:  17280.32
	FillingsUpdate:  mu: -0.209428887  nElectrons: 331.000000
	SubspaceRotationAdjust: set factor to 0.023
ElecMinimize: Iter:  37  F: -1802.911616558624928  |grad|_K:  2.549e-07  alpha:  4.711e-01  linmin: -2.694e-07  t[s]:  17644.16
	FillingsUpdate:  mu: -0.209460278  nElectrons: 331.000000
	SubspaceRotationAdjust: set factor to 0.025
ElecMinimize: Iter:  38  F: -1802.911618003716740  |grad|_K:  2.257e-07  alpha:  5.101e-01  linmin:  5.018e-07  t[s]:  18012.33
	FillingsUpdate:  mu: -0.209532011  nElectrons: 331.000000
	SubspaceRotationAdjust: set factor to 0.0237
ElecMinimize: Iter:  39  F: -1802.911619045335783  |grad|_K:  2.103e-07  alpha:  4.694e-01  linmin: -4.447e-07  t[s]:  18383.51
	FillingsUpdate:  mu: -0.209594466  nElectrons: 331.000000
	SubspaceRotationAdjust: set factor to 0.0239
ElecMinimize: Iter:  40  F: -1802.911619977629925  |grad|_K:  1.857e-07  alpha:  4.830e-01  linmin: -4.169e-07  t[s]:  18755.04
	FillingsUpdate:  mu: -0.209664230  nElectrons: 331.000000
	SubspaceRotationAdjust: set factor to 0.0269
ElecMinimize: Iter:  41  F: -1802.911620847025006  |grad|_K:  1.723e-07  alpha:  5.778e-01  linmin: -5.951e-07  t[s]:  19129.96
	FillingsUpdate:  mu: -0.209737741  nElectrons: 331.000000
	SubspaceRotationAdjust: set factor to 0.0272
ElecMinimize: Iter:  42  F: -1802.911621525255669  |grad|_K:  1.670e-07  alpha:  5.235e-01  linmin: -2.649e-07  t[s]:  19498.09
	FillingsUpdate:  mu: -0.209790936  nElectrons: 331.000000
	SubspaceRotationAdjust: set factor to 0.0241
ElecMinimize: Iter:  43  F: -1802.911622074496563  |grad|_K:  1.506e-07  alpha:  4.510e-01  linmin:  2.341e-07  t[s]:  19870.87
	FillingsUpdate:  mu: -0.209833170  nElectrons: 331.000000
	SubspaceRotationAdjust: set factor to 0.0234
ElecMinimize: Iter:  44  F: -1802.911622507228003  |grad|_K:  1.258e-07  alpha:  4.385e-01  linmin: -3.120e-07  t[s]:  20238.73
	FillingsUpdate:  mu: -0.209837032  nElectrons: 331.000000
	SubspaceRotationAdjust: set factor to 0.0268
ElecMinimize: Iter:  45  F: -1802.911622862578952  |grad|_K:  1.063e-07  alpha:  5.135e-01  linmin: -3.997e-07  t[s]:  20609.77
	FillingsUpdate:  mu: -0.209844164  nElectrons: 331.000000
	SubspaceRotationAdjust: set factor to 0.0279
ElecMinimize: Iter:  46  F: -1802.911623123569825  |grad|_K:  1.008e-07  alpha:  5.286e-01  linmin: -4.635e-07  t[s]:  20981.20
	FillingsUpdate:  mu: -0.209849223  nElectrons: 331.000000
	SubspaceRotationAdjust: set factor to 0.0256
ElecMinimize: Iter:  47  F: -1802.911623320641183  |grad|_K:  9.718e-08  alpha:  4.440e-01  linmin: -3.726e-07  t[s]:  21349.53
	FillingsUpdate:  mu: -0.209810521  nElectrons: 331.000000
	SubspaceRotationAdjust: set factor to 0.026
ElecMinimize: Iter:  48  F: -1802.911623521116553  |grad|_K:  8.835e-08  alpha:  4.879e-01  linmin:  4.677e-07  t[s]:  21717.86
	FillingsUpdate:  mu: -0.209766695  nElectrons: 331.000000
	SubspaceRotationAdjust: set factor to 0.0292
ElecMinimize: Iter:  49  F: -1802.911623728612994  |grad|_K:  8.504e-08  alpha:  6.064e-01  linmin: -1.092e-06  t[s]:  22087.47
	FillingsUpdate:  mu: -0.209757498  nElectrons: 331.000000
	SubspaceRotationAdjust: set factor to 0.0294
ElecMinimize: Iter:  50  F: -1802.911623912193363  |grad|_K:  8.565e-08  alpha:  5.808e-01  linmin:  4.561e-08  t[s]:  22455.33
	FillingsUpdate:  mu: -0.209735279  nElectrons: 331.000000
	SubspaceRotationAdjust: set factor to 0.0242
ElecMinimize: Iter:  51  F: -1802.911624042439826  |grad|_K:  8.010e-08  alpha:  4.089e-01  linmin:  8.764e-07  t[s]:  22826.85
	FillingsUpdate:  mu: -0.209711018  nElectrons: 331.000000
	SubspaceRotationAdjust: set factor to 0.023
ElecMinimize: Iter:  52  F: -1802.911624155160780  |grad|_K:  5.954e-08  alpha:  4.065e-01  linmin: -2.255e-07  t[s]:  23194.29
	FillingsUpdate:  mu: -0.209687294  nElectrons: 331.000000
	SubspaceRotationAdjust: set factor to 0.0256
ElecMinimize: Iter:  53  F: -1802.911624237408205  |grad|_K:  4.757e-08  alpha:  5.298e-01  linmin:  5.960e-07  t[s]:  23561.36
	FillingsUpdate:  mu: -0.209677931  nElectrons: 331.000000
	SubspaceRotationAdjust: set factor to 0.0248
ElecMinimize: Iter:  54  F: -1802.911624281327477  |grad|_K:  3.985e-08  alpha:  4.499e-01  linmin: -1.076e-06  t[s]:  23928.69
	FillingsUpdate:  mu: -0.209679882  nElectrons: 331.000000
	SubspaceRotationAdjust: set factor to 0.0227
ElecMinimize: Iter:  55  F: -1802.911624309141644  |grad|_K:  3.121e-08  alpha:  3.935e-01  linmin: -2.854e-06  t[s]:  24299.05
	FillingsUpdate:  mu: -0.209679640  nElectrons: 331.000000
	SubspaceRotationAdjust: set factor to 0.0249
ElecMinimize: Iter:  56  F: -1802.911624330076165  |grad|_K:  2.696e-08  alpha:  5.136e-01  linmin:  1.123e-05  t[s]:  24670.57
	FillingsUpdate:  mu: -0.209678682  nElectrons: 331.000000
	SubspaceRotationAdjust: set factor to 0.0286
ElecMinimize: Iter:  57  F: -1802.911624345706059  |grad|_K:  2.463e-08  alpha:  5.450e-01  linmin:  9.514e-07  t[s]:  25037.61
	FillingsUpdate:  mu: -0.209678153  nElectrons: 331.000000
	SubspaceRotationAdjust: set factor to 0.0297
ElecMinimize: Iter:  58  F: -1802.911624359267989  |grad|_K:  2.525e-08  alpha:  5.304e-01  linmin: -4.054e-07  t[s]:  25400.10
	FillingsUpdate:  mu: -0.209677900  nElectrons: 331.000000
	SubspaceRotationAdjust: set factor to 0.0272
ElecMinimize: Iter:  59  F: -1802.911624373315590  |grad|_K:  2.624e-08  alpha:  4.939e-01  linmin:  2.839e-06  t[s]:  25767.97
	FillingsUpdate:  mu: -0.209684285  nElectrons: 331.000000
	SubspaceRotationAdjust: set factor to 0.0263
ElecMinimize: Iter:  60  F: -1802.911624386362291  |grad|_K:  2.395e-08  alpha:  4.648e-01  linmin: -2.221e-06  t[s]:  26137.36
	FillingsUpdate:  mu: -0.209687691  nElectrons: 331.000000
	SubspaceRotationAdjust: set factor to 0.0285
ElecMinimize: Iter:  61  F: -1802.911624401155450  |grad|_K:  2.276e-08  alpha:  5.846e-01  linmin:  4.801e-06  t[s]:  26510.34
	FillingsUpdate:  mu: -0.209688566  nElectrons: 331.000000
	SubspaceRotationAdjust: set factor to 0.0306
ElecMinimize: Iter:  62  F: -1802.911624411785624  |grad|_K:  1.928e-08  alpha:  5.001e-01  linmin: -6.891e-06  t[s]:  26886.96
	FillingsUpdate:  mu: -0.209693649  nElectrons: 331.000000
	SubspaceRotationAdjust: set factor to 0.0283
ElecMinimize: Iter:  63  F: -1802.911624420214139  |grad|_K:  2.096e-08  alpha:  5.024e-01  linmin:  5.186e-06  t[s]:  27254.15
	FillingsUpdate:  mu: -0.209696397  nElectrons: 331.000000
	SubspaceRotationAdjust: set factor to 0.0271
ElecMinimize: Iter:  64  F: -1802.911624425953505  |grad|_K:  1.667e-08  alpha:  3.518e-01  linmin: -6.385e-08  t[s]:  27626.59
ElecMinimize: Converged (|Delta F|<1.000000e-08 for 2 iters).
Setting wave functions to eigenvectors of Hamiltonian

# Ionic positions in lattice coordinates:
ion O   0.292000000000000   0.444000000000000   0.311000000000000 1
ion C   0.500000000000000   0.500000000000000   0.282000000000000 1
ion H   0.700000000000000   0.554000000000000   0.303000000000000 1
ion Pt   0.333300000000000   0.166700000000000  -0.200100000000000 0
ion Pt   0.333300000000000   0.666700000000000  -0.200100000000000 0
ion Pt   0.833300000000000   0.166700000000000  -0.200100000000000 0
ion Pt   0.833300000000000   0.666700000000000  -0.200100000000000 0
ion Pt   0.000000000000000   0.000000000000000  -0.100000000000000 0
ion Pt   0.000000000000000   0.500000000000000  -0.100000000000000 0
ion Pt   0.500000000000000   0.000000000000000  -0.100000000000000 0
ion Pt   0.500000000000000   0.500000000000000  -0.100000000000000 0
ion Pt   0.166700000000000   0.333300000000000   0.000000000000000 1
ion Pt   0.166700000000000   0.833300000000000   0.000000000000000 1
ion Pt   0.666700000000000   0.333300000000000   0.000000000000000 1
ion Pt   0.666700000000000   0.833300000000000   0.000000000000000 1
ion Pt   0.333300000000000   0.166700000000000   0.100000000000000 1
ion Pt   0.333300000000000   0.666700000000000   0.100000000000000 1
ion Pt   0.833300000000000   0.166700000000000   0.100000000000000 1
ion Pt   0.833300000000000   0.666700000000000   0.100000000000000 1
ion Pt   0.000000000000000   0.000000000000000   0.200100000000000 1
ion Pt   0.000000000000000   0.500000000000000   0.200100000000000 1
ion Pt   0.500000000000000   0.000000000000000   0.200100000000000 1
ion Pt   0.500000000000000   0.500000000000000   0.200100000000000 1


# Forces in Lattice coordinates:
force O   0.156088352012336  -0.035526752964373  -0.065636473059953 1
force C  -0.318255370008485   0.088872169920433   2.099449934741274 1
force H   0.101216700918456  -0.028910451734785   0.310721934526975 1
force Pt   0.000217538100870  -0.000409132128223  -0.022444277068867 0
force Pt   0.000181258194355   0.000346699671192  -0.019855317274555 0
force Pt  -0.000412648390641  -0.000309825729586  -0.001201129124048 0
force Pt  -0.000160994416082   0.000145606661222  -0.018714363174085 0
force Pt   0.000488700886127   0.000262613901352   0.078222209077414 0
force Pt   0.000300947250635  -0.000359197693295   0.077078567886161 0
force Pt  -0.001052220379119   0.000454481616045   0.088324292033435 0
force Pt  -0.000114407527627  -0.000574267401998   0.076551390915449 0
force Pt   0.001929985210106  -0.000167439857764   0.025620844235738 1
force Pt  -0.000790333298430  -0.000527248885400  -0.220000858439298 1
force Pt  -0.002805709650460   0.003395806568240   0.035770402655432 1
force Pt   0.001164009476917  -0.003520222981846   0.050428392827555 1
force Pt   0.000723935975207  -0.014476876575840  -0.197296792578995 1
force Pt  -0.010463529382900   0.012823410360826  -0.245210753131919 1
force Pt  -0.000939576576019  -0.000178839023164  -0.073576294394222 1
force Pt   0.020888865820475  -0.001156284408805  -0.247893550523128 1
force Pt  -0.001198825555449   0.002822749971656  -0.215752122272990 1
force Pt   0.014331758545293  -0.013325567967306  -0.176008374778767 1
force Pt  -0.000957345296658   0.005938271487796  -0.169198922140452 1
force Pt   0.039514300171645  -0.015820321796243  -1.200772784313302 1

# Energy components:
   Eewald =   -28211.9806144513131585
       EH =   -26694.7624133050630917
     Eloc =    52788.2495437895704526
      Enl =      -18.0122796852311673
      Exc =     -571.9934221882374459
 Exc_core =      324.9288336121243219
       KE =      580.8902175865101754
-------------------------------------
     Etot =    -1802.6801346416400520
       TS =        0.2314897843133984
-------------------------------------
        F =    -1802.9116244259535051

IonicMinimize: Iter:   0  F: -1802.911624425953505  |grad|_K:  1.031e-02  t[s]:  27687.09

#--- Lowdin population analysis ---
# oxidation-state O -0.192
# oxidation-state C +0.262
# oxidation-state H +0.239
# oxidation-state Pt +0.009 +0.009 +0.009 +0.009 +0.012 +0.012 +0.012 +0.012 +0.015 +0.010 +0.015 +0.015 -0.010 -0.010 +0.008 -0.006 -0.007 -0.014 -0.009 -0.076


-------- Electronic minimization -----------
	FillingsUpdate:  mu: -0.224757463  nElectrons: 331.000000
ElecMinimize: Iter:   0  F: -1802.858303375039895  |grad|_K:  5.870e-05  alpha:  1.000e+00
	FillingsUpdate:  mu: -0.190228549  nElectrons: 331.000000
	SubspaceRotationAdjust: set factor to 0.0189
ElecMinimize: Iter:   1  F: -1802.902329475428132  |grad|_K:  2.381e-05  alpha:  2.935e-01  linmin:  9.494e-04  t[s]:  28337.70
	FillingsUpdate:  mu: -0.200914219  nElectrons: 331.000000
	SubspaceRotationAdjust: set factor to 0.0108
ElecMinimize: Iter:   2  F: -1802.907673970225233  |grad|_K:  9.249e-06  alpha:  2.167e-01  linmin: -1.758e-05  t[s]:  28712.28
	FillingsUpdate:  mu: -0.205427808  nElectrons: 331.000000
	SubspaceRotationAdjust: set factor to 0.015
ElecMinimize: Iter:   3  F: -1802.909006758510259  |grad|_K:  3.978e-06  alpha:  3.576e-01  linmin:  1.013e-05  t[s]:  29073.38
	FillingsUpdate:  mu: -0.205890005  nElectrons: 331.000000
	SubspaceRotationAdjust: set factor to 0.0173
ElecMinimize: Iter:   4  F: -1802.909294194974564  |grad|_K:  2.593e-06  alpha:  4.170e-01  linmin:  9.561e-06  t[s]:  29435.88
	FillingsUpdate:  mu: -0.205900615  nElectrons: 331.000000
	SubspaceRotationAdjust: set factor to 0.0215
ElecMinimize: Iter:   5  F: -1802.909482926645069  |grad|_K:  2.541e-06  alpha:  6.442e-01  linmin: -1.784e-05  t[s]:  29807.22
	FillingsUpdate:  mu: -0.206501492  nElectrons: 331.000000
	SubspaceRotationAdjust: set factor to 0.0254
ElecMinimize: Iter:   6  F: -1802.909701052758919  |grad|_K:  3.274e-06  alpha:  7.750e-01  linmin:  5.032e-06  t[s]:  30182.73
	FillingsUpdate:  mu: -0.207329845  nElectrons: 331.000000
	SubspaceRotationAdjust: set factor to 0.0276
ElecMinimize: Iter:   7  F: -1802.910254563888202  |grad|_K:  5.087e-06  alpha:  1.185e+00  linmin: -1.554e-05  t[s]:  30552.61
	FillingsUpdate:  mu: -0.205380593  nElectrons: 331.000000
	SubspaceRotationAdjust: set factor to 0.0284
ElecMinimize: Iter:   8  F: -1802.911400907660436  |grad|_K:  6.647e-06  alpha:  1.017e+00  linmin: -1.304e-05  t[s]:  30919.85
	FillingsUpdate:  mu: -0.204508042  nElectrons: 331.000000
	SubspaceRotationAdjust: set factor to 0.0245
ElecMinimize: Iter:   9  F: -1802.912444916971481  |grad|_K:  6.765e-06  alpha:  5.340e-01  linmin: -5.210e-05  t[s]:  31285.43
	FillingsUpdate:  mu: -0.206262217  nElectrons: 331.000000
	SubspaceRotationAdjust: set factor to 0.0192
ElecMinimize: Iter:  10  F: -1802.913187427730918  |grad|_K:  4.878e-06  alpha:  3.722e-01  linmin: -1.002e-05  t[s]:  31655.03
	FillingsUpdate:  mu: -0.206103057  nElectrons: 331.000000
	SubspaceRotationAdjust: set factor to 0.0219
ElecMinimize: Iter:  11  F: -1802.913618380400067  |grad|_K:  2.714e-06  alpha:  4.153e-01  linmin:  2.032e-05  t[s]:  32023.52
	FillingsUpdate:  mu: -0.205464059  nElectrons: 331.000000
	SubspaceRotationAdjust: set factor to 0.0258
ElecMinimize: Iter:  12  F: -1802.913760827779925  |grad|_K:  1.813e-06  alpha:  4.446e-01  linmin:  1.025e-05  t[s]:  32397.09
	FillingsUpdate:  mu: -0.205448637  nElectrons: 331.000000
	SubspaceRotationAdjust: set factor to 0.0279
ElecMinimize: Iter:  13  F: -1802.913821081763217  |grad|_K:  1.535e-06  alpha:  4.207e-01  linmin: -6.396e-06  t[s]:  32764.84
	FillingsUpdate:  mu: -0.205505956  nElectrons: 331.000000
	SubspaceRotationAdjust: set factor to 0.0325
ElecMinimize: Iter:  14  F: -1802.913869881635719  |grad|_K:  1.357e-06  alpha:  4.752e-01  linmin:  1.172e-05  t[s]:  33134.90
	FillingsUpdate:  mu: -0.205721316  nElectrons: 331.000000
	SubspaceRotationAdjust: set factor to 0.038
ElecMinimize: Iter:  15  F: -1802.913917455221508  |grad|_K:  1.383e-06  alpha:  5.931e-01  linmin: -1.680e-06  t[s]:  33502.86
	FillingsUpdate:  mu: -0.205817826  nElectrons: 331.000000
	SubspaceRotationAdjust: set factor to 0.0426
ElecMinimize: Iter:  16  F: -1802.913971340055014  |grad|_K:  1.430e-06  alpha:  6.470e-01  linmin:  3.836e-06  t[s]:  33872.36
	FillingsUpdate:  mu: -0.206164057  nElectrons: 331.000000
	SubspaceRotationAdjust: set factor to 0.0468
ElecMinimize: Iter:  17  F: -1802.914022223206985  |grad|_K:  1.372e-06  alpha:  5.713e-01  linmin: -1.168e-06  t[s]:  34238.55
	FillingsUpdate:  mu: -0.206353472  nElectrons: 331.000000
	SubspaceRotationAdjust: set factor to 0.0395
ElecMinimize: Iter:  18  F: -1802.914054011632743  |grad|_K:  1.531e-06  alpha:  3.872e-01  linmin:  3.890e-07  t[s]:  34611.37
	FillingsUpdate:  mu: -0.206739676  nElectrons: 331.000000
	SubspaceRotationAdjust: set factor to 0.0346
ElecMinimize: Iter:  19  F: -1802.914079796351871  |grad|_K:  1.141e-06  alpha:  2.525e-01  linmin:  7.389e-07  t[s]:  34983.71
	FillingsUpdate:  mu: -0.206899635  nElectrons: 331.000000
	SubspaceRotationAdjust: set factor to 0.0431
ElecMinimize: Iter:  20  F: -1802.914108165972721  |grad|_K:  9.249e-07  alpha:  5.000e-01  linmin:  4.493e-06  t[s]:  35349.27
	FillingsUpdate:  mu: -0.207015309  nElectrons: 331.000000
	SubspaceRotationAdjust: set factor to 0.0534
ElecMinimize: Iter:  21  F: -1802.914128505615736  |grad|_K:  8.101e-07  alpha:  5.459e-01  linmin: -1.612e-06  t[s]:  35715.75
	FillingsUpdate:  mu: -0.207084364  nElectrons: 331.000000
	SubspaceRotationAdjust: set factor to 0.0544
ElecMinimize: Iter:  22  F: -1802.914142277179508  |grad|_K:  8.721e-07  alpha:  4.817e-01  linmin: -2.416e-06  t[s]:  36083.11
	FillingsUpdate:  mu: -0.206960597  nElectrons: 331.000000
	SubspaceRotationAdjust: set factor to 0.0421
ElecMinimize: Iter:  23  F: -1802.914149272414079  |grad|_K:  7.818e-07  alpha:  2.109e-01  linmin: -3.977e-06  t[s]:  36448.17
	FillingsUpdate:  mu: -0.206823860  nElectrons: 331.000000
	SubspaceRotationAdjust: set factor to 0.0436
ElecMinimize: Iter:  24  F: -1802.914157042205488  |grad|_K:  4.866e-07  alpha:  2.916e-01  linmin: -8.692e-06  t[s]:  36819.57
	FillingsUpdate:  mu: -0.206715456  nElectrons: 331.000000
	SubspaceRotationAdjust: set factor to 0.0557
ElecMinimize: Iter:  25  F: -1802.914161825707424  |grad|_K:  3.629e-07  alpha:  4.636e-01  linmin:  4.079e-06  t[s]:  37188.97
	FillingsUpdate:  mu: -0.206627888  nElectrons: 331.000000
	SubspaceRotationAdjust: set factor to 0.0718
ElecMinimize: Iter:  26  F: -1802.914165073089634  |grad|_K:  3.434e-07  alpha:  5.663e-01  linmin: -1.162e-06  t[s]:  37559.33
	FillingsUpdate:  mu: -0.206538412  nElectrons: 331.000000
	SubspaceRotationAdjust: set factor to 0.0518
ElecMinimize: Iter:  27  F: -1802.914167098344478  |grad|_K:  4.441e-07  alpha:  3.943e-01  linmin:  1.957e-06  t[s]:  37924.33
	FillingsUpdate:  mu: -0.206440620  nElectrons: 331.000000
	SubspaceRotationAdjust: set factor to 0.0422
ElecMinimize: Iter:  28  F: -1802.914168407166926  |grad|_K:  3.416e-07  alpha:  1.522e-01  linmin: -1.611e-06  t[s]:  38290.81
ElecMinimize: 	Predicted alpha/alphaT>3.000000, increasing alphaT to 4.566485e-01.
	FillingsUpdate:  mu: -0.206339602  nElectrons: 331.000000
	SubspaceRotationAdjust: set factor to 0.0572
ElecMinimize: Iter:  29  F: -1802.914170851825929  |grad|_K:  3.150e-07  alpha:  4.806e-01  linmin:  6.759e-07  t[s]:  38745.01
	FillingsUpdate:  mu: -0.206320490  nElectrons: 331.000000
	SubspaceRotationAdjust: set factor to 0.0481
ElecMinimize: Iter:  30  F: -1802.914172380962327  |grad|_K:  3.929e-07  alpha:  3.540e-01  linmin: -8.635e-07  t[s]:  39110.96
	FillingsUpdate:  mu: -0.206295088  nElectrons: 331.000000
	SubspaceRotationAdjust: set factor to 0.0405
ElecMinimize: Iter:  31  F: -1802.914173664202735  |grad|_K:  2.616e-07  alpha:  1.907e-01  linmin: -5.219e-07  t[s]:  39479.99
	FillingsUpdate:  mu: -0.206317221  nElectrons: 331.000000
	SubspaceRotationAdjust: set factor to 0.0538
ElecMinimize: Iter:  32  F: -1802.914175086137448  |grad|_K:  2.122e-07  alpha:  4.770e-01  linmin:  1.611e-06  t[s]:  39846.46
	FillingsUpdate:  mu: -0.206352275  nElectrons: 331.000000
	SubspaceRotationAdjust: set factor to 0.0419
ElecMinimize: Iter:  33  F: -1802.914175851747814  |grad|_K:  2.434e-07  alpha:  3.903e-01  linmin: -1.519e-06  t[s]:  40216.02
	FillingsUpdate:  mu: -0.206370873  nElectrons: 331.000000
	SubspaceRotationAdjust: set factor to 0.0386
ElecMinimize: Iter:  34  F: -1802.914176352593131  |grad|_K:  1.764e-07  alpha:  1.939e-01  linmin:  5.347e-07  t[s]:  40583.30
	FillingsUpdate:  mu: -0.206432945  nElectrons: 331.000000
	SubspaceRotationAdjust: set factor to 0.0543
ElecMinimize: Iter:  35  F: -1802.914176983674906  |grad|_K:  1.556e-07  alpha:  4.662e-01  linmin:  5.593e-06  t[s]:  40948.54
	FillingsUpdate:  mu: -0.206471413  nElectrons: 331.000000
	SubspaceRotationAdjust: set factor to 0.0454
ElecMinimize: Iter:  36  F: -1802.914177483381081  |grad|_K:  2.103e-07  alpha:  4.738e-01  linmin:  7.058e-07  t[s]:  41319.99
	FillingsUpdate:  mu: -0.206467487  nElectrons: 331.000000
	SubspaceRotationAdjust: set factor to 0.0375
ElecMinimize: Iter:  37  F: -1802.914177873355811  |grad|_K:  1.693e-07  alpha:  2.025e-01  linmin:  8.157e-07  t[s]:  41689.02
	FillingsUpdate:  mu: -0.206473358  nElectrons: 331.000000
	SubspaceRotationAdjust: set factor to 0.0486
ElecMinimize: Iter:  38  F: -1802.914178419442351  |grad|_K:  1.420e-07  alpha:  4.352e-01  linmin: -2.007e-05  t[s]:  42062.45
	FillingsUpdate:  mu: -0.206500377  nElectrons: 331.000000
	SubspaceRotationAdjust: set factor to 0.0435
ElecMinimize: Iter:  39  F: -1802.914178748251288  |grad|_K:  1.613e-07  alpha:  3.731e-01  linmin: -2.613e-06  t[s]:  42429.40
	FillingsUpdate:  mu: -0.206495224  nElectrons: 331.000000
	SubspaceRotationAdjust: set factor to 0.0369
ElecMinimize: Iter:  40  F: -1802.914178980814995  |grad|_K:  1.061e-07  alpha:  2.041e-01  linmin:  5.232e-06  t[s]:  42801.20
	FillingsUpdate:  mu: -0.206471606  nElectrons: 331.000000
	SubspaceRotationAdjust: set factor to 0.0516
ElecMinimize: Iter:  41  F: -1802.914179196395935  |grad|_K:  7.722e-08  alpha:  4.336e-01  linmin: -8.578e-05  t[s]:  43166.57
	FillingsUpdate:  mu: -0.206457335  nElectrons: 331.000000
	SubspaceRotationAdjust: set factor to 0.0403
ElecMinimize: Iter:  42  F: -1802.914179294604082  |grad|_K:  8.505e-08  alpha:  3.706e-01  linmin:  4.216e-05  t[s]:  43535.81
	FillingsUpdate:  mu: -0.206438402  nElectrons: 331.000000
	SubspaceRotationAdjust: set factor to 0.038
ElecMinimize: Iter:  43  F: -1802.914179356646855  |grad|_K:  5.929e-08  alpha:  1.984e-01  linmin: -2.379e-05  t[s]:  43904.97
	FillingsUpdate:  mu: -0.206427966  nElectrons: 331.000000
	SubspaceRotationAdjust: set factor to 0.0535
ElecMinimize: Iter:  44  F: -1802.914179427449881  |grad|_K:  5.007e-08  alpha:  4.582e-01  linmin: -1.498e-05  t[s]:  44277.14
	FillingsUpdate:  mu: -0.206424860  nElectrons: 331.000000
	SubspaceRotationAdjust: set factor to 0.0468
ElecMinimize: Iter:  45  F: -1802.914179467983558  |grad|_K:  5.658e-08  alpha:  3.693e-01  linmin: -1.666e-05  t[s]:  44643.99
	FillingsUpdate:  mu: -0.206417657  nElectrons: 331.000000
	SubspaceRotationAdjust: set factor to 0.0389
ElecMinimize: Iter:  46  F: -1802.914179495789085  |grad|_K:  4.179e-08  alpha:  1.990e-01  linmin: -1.001e-06  t[s]:  45010.86
	FillingsUpdate:  mu: -0.206413262  nElectrons: 331.000000
	SubspaceRotationAdjust: set factor to 0.0486
ElecMinimize: Iter:  47  F: -1802.914179528319892  |grad|_K:  3.194e-08  alpha:  4.384e-01  linmin:  1.302e-04  t[s]:  45381.01
	FillingsUpdate:  mu: -0.206413496  nElectrons: 331.000000
	SubspaceRotationAdjust: set factor to 0.0439
ElecMinimize: Iter:  48  F: -1802.914179546318792  |grad|_K:  3.149e-08  alpha:  4.271e-01  linmin:  1.057e-04  t[s]:  45748.47
	FillingsUpdate:  mu: -0.206413421  nElectrons: 331.000000
	SubspaceRotationAdjust: set factor to 0.0395
ElecMinimize: Iter:  49  F: -1802.914179554309385  |grad|_K:  2.618e-08  alpha:  2.044e-01  linmin: -7.925e-06  t[s]:  46119.03
	FillingsUpdate:  mu: -0.206420034  nElectrons: 331.000000
	SubspaceRotationAdjust: set factor to 0.0547
ElecMinimize: Iter:  50  F: -1802.914179567933388  |grad|_K:  2.269e-08  alpha:  4.550e-01  linmin:  1.534e-04  t[s]:  46486.34
	FillingsUpdate:  mu: -0.206423672  nElectrons: 331.000000
	SubspaceRotationAdjust: set factor to 0.0485
ElecMinimize: Iter:  51  F: -1802.914179578401900  |grad|_K:  2.765e-08  alpha:  4.848e-01  linmin: -2.021e-04  t[s]:  46855.65
	FillingsUpdate:  mu: -0.206422902  nElectrons: 331.000000
	SubspaceRotationAdjust: set factor to 0.0413
ElecMinimize: Iter:  52  F: -1802.914179586219689  |grad|_K:  2.774e-08  alpha:  2.318e-01  linmin: -4.748e-05  t[s]:  47228.21
	FillingsUpdate:  mu: -0.206427203  nElectrons: 331.000000
	SubspaceRotationAdjust: set factor to 0.0473
ElecMinimize: Iter:  53  F: -1802.914179600972602  |grad|_K:  2.453e-08  alpha:  3.990e-01  linmin: -9.929e-05  t[s]:  47595.84
	FillingsUpdate:  mu: -0.206434902  nElectrons: 331.000000
	SubspaceRotationAdjust: set factor to 0.0508
ElecMinimize: Iter:  54  F: -1802.914179616471756  |grad|_K:  2.596e-08  alpha:  5.106e-01  linmin: -7.027e-05  t[s]:  47965.03
	FillingsUpdate:  mu: -0.206434853  nElectrons: 331.000000
	SubspaceRotationAdjust: set factor to 0.0393
ElecMinimize: Iter:  55  F: -1802.914179624222470  |grad|_K:  2.482e-08  alpha:  2.329e-01  linmin: -2.728e-05  t[s]:  48330.49
	FillingsUpdate:  mu: -0.206434977  nElectrons: 331.000000
	SubspaceRotationAdjust: set factor to 0.0498
ElecMinimize: Iter:  56  F: -1802.914179630828585  |grad|_K:  1.448e-08  alpha:  2.460e-01  linmin: -3.035e-04  t[s]:  48697.66
ElecMinimize: Converged (|Delta F|<1.000000e-08 for 2 iters).
Setting wave functions to eigenvectors of Hamiltonian

# Ionic positions in lattice coordinates:
ion O   0.293679473416549   0.444516225515061   0.310964116496267 1
ion C   0.496675421713146   0.499146992294797   0.283147770683864 1
ion H   0.701053414904795   0.554263445151268   0.303169871889480 1
ion Pt   0.333300000000000   0.166700000000000  -0.200100000000000 0
ion Pt   0.333300000000000   0.666700000000000  -0.200100000000000 0
ion Pt   0.833300000000000   0.166700000000000  -0.200100000000000 0
ion Pt   0.833300000000000   0.666700000000000  -0.200100000000000 0
ion Pt   0.000000000000000   0.000000000000000  -0.100000000000000 0
ion Pt   0.000000000000000   0.500000000000000  -0.100000000000000 0
ion Pt   0.500000000000000   0.000000000000000  -0.100000000000000 0
ion Pt   0.500000000000000   0.500000000000000  -0.100000000000000 0
ion Pt   0.166722416439604   0.333309683490868   0.000014006932684 1
ion Pt   0.166687203366553   0.833288800486944  -0.000120274616490 1
ion Pt   0.666686549563188   0.333324197434050   0.000019555703062 1
ion Pt   0.666692762424268   0.833264325607774   0.000027569236096 1
ion Pt   0.333220904135972   0.166528623763278   0.099892137711505 1
ion Pt   0.333250804755175   0.666792174005748   0.099865943117216 1
ion Pt   0.833287506438601   0.166692124688096   0.099959775790632 1
ion Pt   0.833546602757408   0.666812772103789   0.099864476430087 1
ion Pt   0.000002580670025   0.000026994660212   0.199982048170414 1
ion Pt   0.000093112894899   0.499925212107378   0.200003776103758 1
ion Pt   0.500024426164276   0.000066287747970   0.200007498836071 1
ion Pt   0.500383721822898   0.500047799021345   0.199443536715494 1


# Forces in Lattice coordinates:
force O  -0.239465200646348   0.069698488697373   1.081863228199893 1
force C   0.132564682457551  -0.031819678833055   0.379025830281160 1
force H   0.053066990542017  -0.015955452579180   0.215719534595656 1
force Pt   0.000207609570765  -0.000417659286071  -0.021345907018981 0
force Pt   0.000183905653102   0.000338814326204  -0.018789647718738 0
force Pt  -0.000383211597646  -0.000329224183654  -0.000341020813542 0
force Pt  -0.000158299678763   0.000174106892295  -0.017388060942138 0
force Pt  -0.000538915094860   0.001215932739298   0.076634466240332 0
force Pt   0.000284449563577  -0.001357945016213   0.074531593597915 0
force Pt   0.000155991240240   0.000366626256658   0.085491783700768 0
force Pt  -0.000109198672638  -0.000530963200884   0.077369959383636 0
force Pt   0.000907856634914  -0.000328763007916   0.008996301898015 1
force Pt   0.000061167297840  -0.000412919377027  -0.201804307269500 1
force Pt  -0.001806789380658   0.001939624634303   0.018880552194630 1
force Pt   0.000859873090481  -0.002015012207353   0.030366260638974 1
force Pt   0.001134228865988  -0.015568147357178  -0.203958685258198 1
force Pt  -0.011146483895752   0.013507094225266  -0.242848425053260 1
force Pt  -0.000617279587249  -0.000157029742636  -0.072912794221186 1
force Pt   0.020724996983710  -0.001125152607491  -0.252737952438204 1
force Pt  -0.000721437642718   0.000625296074563  -0.208293355652519 1
force Pt   0.009575075214598  -0.009658007902789  -0.188408827510171 1
force Pt  -0.000210568742408   0.004990491463354  -0.153421796102632 1
force Pt   0.035413367291449  -0.013467768349897  -0.484048400862618 1

# Energy components:
   Eewald =   -28203.1054088922755909
       EH =   -26684.9021006438561017
     Eloc =    52769.4765297463673051
      Enl =      -17.9991988439636259
      Exc =     -572.0060865370527381
 Exc_core =      324.9288309399969421
       KE =      580.9247255524479669
-------------------------------------
     Etot =    -1802.6827086783359846
       TS =        0.2314709524927078
-------------------------------------
        F =    -1802.9141796308285848

IonicMinimize: Iter:   1  F: -1802.914179630828585  |grad|_K:  6.361e-03  alpha:  1.000e+00  linmin: -7.467e-02  t[s]:  48757.51

#--- Lowdin population analysis ---
# oxidation-state O -0.172
# oxidation-state C +0.279
# oxidation-state H +0.232
# oxidation-state Pt +0.009 +0.009 +0.009 +0.009 +0.012 +0.012 +0.012 +0.011 +0.015 +0.010 +0.015 +0.014 -0.008 -0.008 +0.009 -0.005 -0.012 -0.018 -0.014 -0.091


-------- Electronic minimization -----------
	FillingsUpdate:  mu: -0.216846198  nElectrons: 331.000000
ElecMinimize: Iter:   0  F: -1802.885339799729763  |grad|_K:  4.657e-05  alpha:  1.000e+00
	FillingsUpdate:  mu: -0.185225416  nElectrons: 331.000000
	SubspaceRotationAdjust: set factor to 0.0336
ElecMinimize: Iter:   1  F: -1802.905315256842186  |grad|_K:  3.214e-05  alpha:  2.101e-01  linmin: -1.629e-03  t[s]:  49408.79
	FillingsUpdate:  mu: -0.193628374  nElectrons: 331.000000
	SubspaceRotationAdjust: set factor to 0.0213
ElecMinimize: Iter:   2  F: -1802.911889549868192  |grad|_K:  8.930e-06  alpha:  1.452e-01  linmin:  1.059e-05  t[s]:  49773.32
	FillingsUpdate:  mu: -0.201498930  nElectrons: 331.000000
	SubspaceRotationAdjust: set factor to 0.0305
ElecMinimize: Iter:   3  F: -1802.913189077292827  |grad|_K:  3.383e-06  alpha:  3.740e-01  linmin:  1.510e-07  t[s]:  50144.60
	FillingsUpdate:  mu: -0.202727357  nElectrons: 331.000000
	SubspaceRotationAdjust: set factor to 0.0279
ElecMinimize: Iter:   4  F: -1802.913399959941898  |grad|_K:  2.432e-06  alpha:  4.229e-01  linmin:  3.300e-06  t[s]:  50511.79
	FillingsUpdate:  mu: -0.203627446  nElectrons: 331.000000
	SubspaceRotationAdjust: set factor to 0.0242
ElecMinimize: Iter:   5  F: -1802.913507462488724  |grad|_K:  2.506e-06  alpha:  4.173e-01  linmin: -1.461e-05  t[s]:  50880.40
	FillingsUpdate:  mu: -0.204693913  nElectrons: 331.000000
	SubspaceRotationAdjust: set factor to 0.0271
ElecMinimize: Iter:   6  F: -1802.913650966535442  |grad|_K:  2.330e-06  alpha:  5.244e-01  linmin:  1.197e-05  t[s]:  51251.26
	FillingsUpdate:  mu: -0.206413882  nElectrons: 331.000000
	SubspaceRotationAdjust: set factor to 0.0303
ElecMinimize: Iter:   7  F: -1802.913866232876217  |grad|_K:  3.089e-06  alpha:  9.101e-01  linmin: -2.683e-06  t[s]:  51615.78
	FillingsUpdate:  mu: -0.207746777  nElectrons: 331.000000
	SubspaceRotationAdjust: set factor to 0.0312
ElecMinimize: Iter:   8  F: -1802.914215871766828  |grad|_K:  4.252e-06  alpha:  8.409e-01  linmin: -1.619e-05  t[s]:  51979.80
	FillingsUpdate:  mu: -0.207690380  nElectrons: 331.000000
	SubspaceRotationAdjust: set factor to 0.0251
ElecMinimize: Iter:   9  F: -1802.914567145349110  |grad|_K:  4.181e-06  alpha:  4.417e-01  linmin: -3.381e-05  t[s]:  52343.01
	FillingsUpdate:  mu: -0.208165289  nElectrons: 331.000000
	SubspaceRotationAdjust: set factor to 0.022
ElecMinimize: Iter:  10  F: -1802.914868128446869  |grad|_K:  3.235e-06  alpha:  3.940e-01  linmin: -2.021e-05  t[s]:  52711.83
	FillingsUpdate:  mu: -0.208860649  nElectrons: 331.000000
	SubspaceRotationAdjust: set factor to 0.0249
ElecMinimize: Iter:  11  F: -1802.915083636120244  |grad|_K:  2.460e-06  alpha:  4.718e-01  linmin:  7.042e-06  t[s]:  53081.57
	FillingsUpdate:  mu: -0.208864267  nElectrons: 331.000000
	SubspaceRotationAdjust: set factor to 0.0271
ElecMinimize: Iter:  12  F: -1802.915192723050041  |grad|_K:  1.749e-06  alpha:  4.141e-01  linmin:  7.713e-06  t[s]:  53449.43
	FillingsUpdate:  mu: -0.208248849  nElectrons: 331.000000
	SubspaceRotationAdjust: set factor to 0.0249
ElecMinimize: Iter:  13  F: -1802.915244992894486  |grad|_K:  1.385e-06  alpha:  3.923e-01  linmin: -6.808e-06  t[s]:  53821.04
	FillingsUpdate:  mu: -0.207417847  nElectrons: 331.000000
	SubspaceRotationAdjust: set factor to 0.025
ElecMinimize: Iter:  14  F: -1802.915277255137426  |grad|_K:  1.027e-06  alpha:  3.859e-01  linmin:  6.110e-06  t[s]:  54189.61
	FillingsUpdate:  mu: -0.207028008  nElectrons: 331.000000
	SubspaceRotationAdjust: set factor to 0.0333
ElecMinimize: Iter:  15  F: -1802.915301670574308  |grad|_K:  7.746e-07  alpha:  5.312e-01  linmin: -3.094e-06  t[s]:  54556.56
	FillingsUpdate:  mu: -0.206747136  nElectrons: 331.000000
	SubspaceRotationAdjust: set factor to 0.0304
ElecMinimize: Iter:  16  F: -1802.915316069534811  |grad|_K:  8.430e-07  alpha:  5.507e-01  linmin: -3.070e-06  t[s]:  54923.43
	FillingsUpdate:  mu: -0.206398179  nElectrons: 331.000000
	SubspaceRotationAdjust: set factor to 0.0266
ElecMinimize: Iter:  17  F: -1802.915327507836309  |grad|_K:  8.435e-07  alpha:  3.693e-01  linmin:  4.960e-07  t[s]:  55286.14
	FillingsUpdate:  mu: -0.206045151  nElectrons: 331.000000
	SubspaceRotationAdjust: set factor to 0.0304
ElecMinimize: Iter:  18  F: -1802.915345878988774  |grad|_K:  8.044e-07  alpha:  5.927e-01  linmin: -1.061e-07  t[s]:  55654.49
	FillingsUpdate:  mu: -0.205791905  nElectrons: 331.000000
	SubspaceRotationAdjust: set factor to 0.0336
ElecMinimize: Iter:  19  F: -1802.915364421006416  |grad|_K:  8.519e-07  alpha:  6.577e-01  linmin: -1.145e-06  t[s]:  56019.51
	FillingsUpdate:  mu: -0.205672196  nElectrons: 331.000000
	SubspaceRotationAdjust: set factor to 0.0279
ElecMinimize: Iter:  20  F: -1802.915376930433922  |grad|_K:  8.159e-07  alpha:  3.953e-01  linmin: -2.904e-06  t[s]:  56388.49
	FillingsUpdate:  mu: -0.205800143  nElectrons: 331.000000
	SubspaceRotationAdjust: set factor to 0.0233
ElecMinimize: Iter:  21  F: -1802.915386507636867  |grad|_K:  5.667e-07  alpha:  3.302e-01  linmin: -3.631e-06  t[s]:  56757.02
	FillingsUpdate:  mu: -0.205889930  nElectrons: 331.000000
	SubspaceRotationAdjust: set factor to 0.0301
ElecMinimize: Iter:  22  F: -1802.915392491887360  |grad|_K:  3.728e-07  alpha:  4.275e-01  linmin: -1.815e-06  t[s]:  57123.65
	FillingsUpdate:  mu: -0.205950371  nElectrons: 331.000000
	SubspaceRotationAdjust: set factor to 0.0321
ElecMinimize: Iter:  23  F: -1802.915395284106580  |grad|_K:  3.219e-07  alpha:  4.610e-01  linmin:  7.836e-06  t[s]:  57490.89
	FillingsUpdate:  mu: -0.206060759  nElectrons: 331.000000
	SubspaceRotationAdjust: set factor to 0.0304
ElecMinimize: Iter:  24  F: -1802.915396992440947  |grad|_K:  3.051e-07  alpha:  3.787e-01  linmin:  5.553e-07  t[s]:  57859.01
	FillingsUpdate:  mu: -0.206152795  nElectrons: 331.000000
	SubspaceRotationAdjust: set factor to 0.0335
ElecMinimize: Iter:  25  F: -1802.915398819175380  |grad|_K:  2.615e-07  alpha:  4.505e-01  linmin:  3.412e-06  t[s]:  58225.82
	FillingsUpdate:  mu: -0.206271955  nElectrons: 331.000000
	SubspaceRotationAdjust: set factor to 0.0388
ElecMinimize: Iter:  26  F: -1802.915400912929499  |grad|_K:  2.756e-07  alpha:  7.024e-01  linmin: -5.909e-06  t[s]:  58597.44
	FillingsUpdate:  mu: -0.206418563  nElectrons: 331.000000
	SubspaceRotationAdjust: set factor to 0.0417
ElecMinimize: Iter:  27  F: -1802.915402875913969  |grad|_K:  2.533e-07  alpha:  5.932e-01  linmin: -7.399e-06  t[s]:  58964.89
	FillingsUpdate:  mu: -0.206470773  nElectrons: 331.000000
	SubspaceRotationAdjust: set factor to 0.0355
ElecMinimize: Iter:  28  F: -1802.915403940451142  |grad|_K:  2.479e-07  alpha:  3.802e-01  linmin:  4.634e-06  t[s]:  59330.26
	FillingsUpdate:  mu: -0.206516246  nElectrons: 331.000000
	SubspaceRotationAdjust: set factor to 0.0263
ElecMinimize: Iter:  29  F: -1802.915404574790045  |grad|_K:  1.655e-07  alpha:  2.374e-01  linmin: -5.469e-06  t[s]:  59697.84
	FillingsUpdate:  mu: -0.206521049  nElectrons: 331.000000
	SubspaceRotationAdjust: set factor to 0.0342
ElecMinimize: Iter:  30  F: -1802.915405094523749  |grad|_K:  1.031e-07  alpha:  4.362e-01  linmin:  5.687e-05  t[s]:  60068.07
	FillingsUpdate:  mu: -0.206521903  nElectrons: 331.000000
	SubspaceRotationAdjust: set factor to 0.0347
ElecMinimize: Iter:  31  F: -1802.915405311978475  |grad|_K:  8.645e-08  alpha:  4.720e-01  linmin: -2.463e-05  t[s]:  60433.35
	FillingsUpdate:  mu: -0.206523027  nElectrons: 331.000000
	SubspaceRotationAdjust: set factor to 0.0297
ElecMinimize: Iter:  32  F: -1802.915405421805872  |grad|_K:  8.525e-08  alpha:  3.359e-01  linmin:  3.250e-05  t[s]:  60803.50
	FillingsUpdate:  mu: -0.206499440  nElectrons: 331.000000
	SubspaceRotationAdjust: set factor to 0.0339
ElecMinimize: Iter:  33  F: -1802.915405555803545  |grad|_K:  6.996e-08  alpha:  4.259e-01  linmin:  4.766e-06  t[s]:  61170.38
	FillingsUpdate:  mu: -0.206467896  nElectrons: 331.000000
	SubspaceRotationAdjust: set factor to 0.0404
ElecMinimize: Iter:  34  F: -1802.915405696790458  |grad|_K:  6.739e-08  alpha:  6.658e-01  linmin:  4.245e-06  t[s]:  61539.41
	FillingsUpdate:  mu: -0.206441782  nElectrons: 331.000000
	SubspaceRotationAdjust: set factor to 0.0369
ElecMinimize: Iter:  35  F: -1802.915405802709301  |grad|_K:  8.174e-08  alpha:  5.388e-01  linmin:  3.384e-05  t[s]:  61909.68
	FillingsUpdate:  mu: -0.206413720  nElectrons: 331.000000
	SubspaceRotationAdjust: set factor to 0.0293
ElecMinimize: Iter:  36  F: -1802.915405879428590  |grad|_K:  6.455e-08  alpha:  2.613e-01  linmin: -5.914e-06  t[s]:  62279.62
	FillingsUpdate:  mu: -0.206392837  nElectrons: 331.000000
	SubspaceRotationAdjust: set factor to 0.0392
ElecMinimize: Iter:  37  F: -1802.915405963916328  |grad|_K:  4.972e-08  alpha:  4.544e-01  linmin: -1.626e-04  t[s]:  62649.40
	FillingsUpdate:  mu: -0.206379300  nElectrons: 331.000000
	SubspaceRotationAdjust: set factor to 0.0445
ElecMinimize: Iter:  38  F: -1802.915406026036862  |grad|_K:  5.553e-08  alpha:  5.556e-01  linmin:  3.268e-05  t[s]:  63021.26
	FillingsUpdate:  mu: -0.206360258  nElectrons: 331.000000
	SubspaceRotationAdjust: set factor to 0.0394
ElecMinimize: Iter:  39  F: -1802.915406070649624  |grad|_K:  5.948e-08  alpha:  3.347e-01  linmin:  9.201e-07  t[s]:  63385.15
	FillingsUpdate:  mu: -0.206344997  nElectrons: 331.000000
	SubspaceRotationAdjust: set factor to 0.0372
ElecMinimize: Iter:  40  F: -1802.915406119945146  |grad|_K:  4.645e-08  alpha:  3.255e-01  linmin:  4.459e-05  t[s]:  63753.73
	FillingsUpdate:  mu: -0.206329796  nElectrons: 331.000000
	SubspaceRotationAdjust: set factor to 0.0426
ElecMinimize: Iter:  41  F: -1802.915406170202232  |grad|_K:  3.685e-08  alpha:  5.375e-01  linmin: -2.033e-05  t[s]:  64125.54
	FillingsUpdate:  mu: -0.206325849  nElectrons: 331.000000
	SubspaceRotationAdjust: set factor to 0.0477
ElecMinimize: Iter:  42  F: -1802.915406202805343  |grad|_K:  3.125e-08  alpha:  5.627e-01  linmin:  7.805e-05  t[s]:  64493.25
	FillingsUpdate:  mu: -0.206327579  nElectrons: 331.000000
	SubspaceRotationAdjust: set factor to 0.0376
ElecMinimize: Iter:  43  F: -1802.915406217737655  |grad|_K:  3.308e-08  alpha:  3.454e-01  linmin:  2.433e-05  t[s]:  64860.91
	FillingsUpdate:  mu: -0.206326740  nElectrons: 331.000000
	SubspaceRotationAdjust: set factor to 0.0339
ElecMinimize: Iter:  44  F: -1802.915406227633866  |grad|_K:  2.190e-08  alpha:  2.252e-01  linmin: -6.257e-05  t[s]:  65232.69
	FillingsUpdate:  mu: -0.206332721  nElectrons: 331.000000
	SubspaceRotationAdjust: set factor to 0.0398
ElecMinimize: Iter:  45  F: -1802.915406238077367  |grad|_K:  2.322e-08  alpha:  6.344e-01  linmin:  5.749e-04  t[s]:  65602.30
	FillingsUpdate:  mu: -0.206335939  nElectrons: 331.000000
	SubspaceRotationAdjust: set factor to 0.0453
ElecMinimize: Iter:  46  F: -1802.915406244541828  |grad|_K:  1.900e-08  alpha:  3.860e-01  linmin: -3.210e-05  t[s]:  65967.64
	FillingsUpdate:  mu: -0.206336709  nElectrons: 331.000000
	SubspaceRotationAdjust: set factor to 0.043
ElecMinimize: Iter:  47  F: -1802.915406250421256  |grad|_K:  2.043e-08  alpha:  3.865e-01  linmin:  1.699e-04  t[s]:  66336.60
ElecMinimize: Converged (|Delta F|<1.000000e-08 for 2 iters).
Setting wave functions to eigenvectors of Hamiltonian

# Ionic positions in lattice coordinates:
ion O   0.292289471382444   0.444210181251543   0.311411755067853 1
ion C   0.496708780908049   0.499198265706769   0.283676710588463 1
ion H   0.701816221982559   0.554447632410415   0.303315900378906 1
ion Pt   0.333300000000000   0.166700000000000  -0.200100000000000 0
ion Pt   0.333300000000000   0.666700000000000  -0.200100000000000 0
ion Pt   0.833300000000000   0.166700000000000  -0.200100000000000 0
ion Pt   0.833300000000000   0.666700000000000  -0.200100000000000 0
ion Pt   0.000000000000000   0.000000000000000  -0.100000000000000 0
ion Pt   0.000000000000000   0.500000000000000  -0.100000000000000 0
ion Pt   0.500000000000000   0.000000000000000  -0.100000000000000 0
ion Pt   0.500000000000000   0.500000000000000  -0.100000000000000 0
ion Pt   0.166736612776232   0.333313968640626   0.000022316893680 1
ion Pt   0.166681730152269   0.833281605218501  -0.000244492022252 1
ion Pt   0.666674347249884   0.333341724262131   0.000033840013325 1
ion Pt   0.666689049890507   0.833237945107663   0.000049297987567 1
ion Pt   0.333132861084307   0.166332273598506   0.099770986507703 1
ion Pt   0.333193622917629   0.666896513435517   0.099719886606794 1
ion Pt   0.833276941694665   0.166685210004810   0.099915931817745 1
ion Pt   0.833815725751404   0.666936003162259   0.099713752419713 1
ion Pt  -0.000000444751772   0.000038145371240   0.199855821690185 1
ion Pt   0.000167707191028   0.499855321966423   0.199892956639827 1
ion Pt   0.500053793502432   0.000133590866512   0.199912721824721 1
ion Pt   0.500777094750363   0.500103081382313   0.199027582956859 1


# Forces in Lattice coordinates:
force O  -0.140675711507118   0.043494302934163   0.832843246360380 1
force C   0.048597704841918  -0.009687269557241   0.214594651888341 1
force H   0.044060860647971  -0.013494709391596   0.238324228104679 1
force Pt   0.000214548278919  -0.000397814394169  -0.022850469358814 0
force Pt   0.000220617257813   0.000307647385200  -0.020275619283008 0
force Pt  -0.000385609986986  -0.000334066892091  -0.001396858280355 0
force Pt  -0.000189922768413   0.000183893073168  -0.018725692444845 0
force Pt  -0.001571412123301   0.002160160607758   0.071283699914037 0
force Pt   0.000251027301495  -0.002331937026646   0.068604869469634 0
force Pt   0.001224225138669   0.000308720192329   0.080463551343943 0
force Pt  -0.000081460567132  -0.000481565893614   0.075700457547459 0
force Pt   0.000163308566662  -0.000491697426601  -0.007210027972614 1
force Pt   0.000408450174003  -0.000270266475985  -0.195959435189533 1
force Pt  -0.001000787258625   0.000806029204202   0.001356241577980 1
force Pt   0.000653171290457  -0.000871224591052   0.010152579504978 1
force Pt   0.001255369701766  -0.014224017956628  -0.199837180754819 1
force Pt  -0.009819882855054   0.012099242044401  -0.230934012835202 1
force Pt  -0.000456449271639  -0.000084263675194  -0.076340535554219 1
force Pt   0.019378331335771  -0.001188956563434  -0.245462950911462 1
force Pt   0.000861646460218   0.000085560870533  -0.201280853894132 1
force Pt   0.011015790788004  -0.009039695733217  -0.186858783256170 1
force Pt  -0.000257693283171   0.003423435368580  -0.149344852045019 1
force Pt   0.026386868441160  -0.010312585528586  -0.094328380150368 1

# Energy components:
   Eewald =   -28197.0363919550582068
       EH =   -26678.7975457135398756
     Eloc =    52757.3263673753972398
      Enl =      -18.0052111889560038
      Exc =     -571.9969735966747066
 Exc_core =      324.9288293401561418
       KE =      580.8970374628883064
-------------------------------------
     Etot =    -1802.6838882757870124
       TS =        0.2315179746342096
-------------------------------------
        F =    -1802.9154062504212561

IonicMinimize: Iter:   2  F: -1802.915406250421256  |grad|_K:  4.345e-03  alpha:  1.000e+00  linmin: -8.088e-01  t[s]:  66397.32

#--- Lowdin population analysis ---
# oxidation-state O -0.173
# oxidation-state C +0.279
# oxidation-state H +0.232
# oxidation-state Pt +0.009 +0.009 +0.010 +0.009 +0.013 +0.013 +0.013 +0.013 +0.015 +0.010 +0.015 +0.015 -0.009 -0.008 +0.007 -0.005 -0.012 -0.019 -0.014 -0.094


-------- Electronic minimization -----------
	FillingsUpdate:  mu: -0.179429475  nElectrons: 331.000000
ElecMinimize: Iter:   0  F: -1802.670601643439568  |grad|_K:  1.392e-04  alpha:  1.000e+00
	FillingsUpdate:  mu: -0.142037206  nElectrons: 331.000000
	SubspaceRotationAdjust: set factor to 0.0266
ElecMinimize: Iter:   1  F: -1802.833816992477750  |grad|_K:  8.456e-05  alpha:  1.907e-01  linmin: -3.516e-03  t[s]:  67050.79
	FillingsUpdate:  mu: -0.167868727  nElectrons: 331.000000
	SubspaceRotationAdjust: set factor to 0.0181
ElecMinimize: Iter:   2  F: -1802.891010748737926  |grad|_K:  2.391e-05  alpha:  1.815e-01  linmin:  4.715e-04  t[s]:  67418.38
	FillingsUpdate:  mu: -0.188143746  nElectrons: 331.000000
	SubspaceRotationAdjust: set factor to 0.0247
ElecMinimize: Iter:   3  F: -1802.900505539381356  |grad|_K:  9.149e-06  alpha:  3.816e-01  linmin:  1.227e-05  t[s]:  67788.01
	FillingsUpdate:  mu: -0.193781568  nElectrons: 331.000000
	SubspaceRotationAdjust: set factor to 0.0288
ElecMinimize: Iter:   4  F: -1802.902140735496914  |grad|_K:  6.087e-06  alpha:  4.484e-01  linmin: -3.274e-06  t[s]:  68157.01
	FillingsUpdate:  mu: -0.197217039  nElectrons: 331.000000
	SubspaceRotationAdjust: set factor to 0.0252
ElecMinimize: Iter:   5  F: -1802.903070473155594  |grad|_K:  6.529e-06  alpha:  5.756e-01  linmin: -6.554e-05  t[s]:  68528.54
	FillingsUpdate:  mu: -0.200125896  nElectrons: 331.000000
	SubspaceRotationAdjust: set factor to 0.0248
ElecMinimize: Iter:   6  F: -1802.903907612086641  |grad|_K:  6.606e-06  alpha:  4.498e-01  linmin:  1.378e-05  t[s]:  68895.63
	FillingsUpdate:  mu: -0.206078762  nElectrons: 331.000000
	SubspaceRotationAdjust: set factor to 0.0262
ElecMinimize: Iter:   7  F: -1802.905467371508166  |grad|_K:  7.982e-06  alpha:  8.182e-01  linmin: -8.729e-05  t[s]:  69266.82
	FillingsUpdate:  mu: -0.211860708  nElectrons: 331.000000
	SubspaceRotationAdjust: set factor to 0.0288
ElecMinimize: Iter:   8  F: -1802.908271955500595  |grad|_K:  1.011e-05  alpha:  1.003e+00  linmin: -1.402e-05  t[s]:  69637.65
	FillingsUpdate:  mu: -0.213530099  nElectrons: 331.000000
	SubspaceRotationAdjust: set factor to 0.029
ElecMinimize: Iter:   9  F: -1802.910995317000470  |grad|_K:  9.949e-06  alpha:  6.028e-01  linmin: -3.088e-05  t[s]:  70008.86
	FillingsUpdate:  mu: -0.214981428  nElectrons: 331.000000
	SubspaceRotationAdjust: set factor to 0.0258
ElecMinimize: Iter:  10  F: -1802.912908686104629  |grad|_K:  9.123e-06  alpha:  4.456e-01  linmin: -3.527e-05  t[s]:  70379.47
	FillingsUpdate:  mu: -0.215291881  nElectrons: 331.000000
	SubspaceRotationAdjust: set factor to 0.0223
ElecMinimize: Iter:  11  F: -1802.914415683275138  |grad|_K:  7.074e-06  alpha:  4.137e-01  linmin:  8.774e-05  t[s]:  70752.53
	FillingsUpdate:  mu: -0.215135395  nElectrons: 331.000000
	SubspaceRotationAdjust: set factor to 0.0255
ElecMinimize: Iter:  12  F: -1802.915333940370147  |grad|_K:  5.023e-06  alpha:  4.241e-01  linmin: -3.751e-05  t[s]:  71116.85
	FillingsUpdate:  mu: -0.213446372  nElectrons: 331.000000
	SubspaceRotationAdjust: set factor to 0.0305
ElecMinimize: Iter:  13  F: -1802.915862257205845  |grad|_K:  3.852e-06  alpha:  4.793e-01  linmin: -9.026e-06  t[s]:  71489.53
	FillingsUpdate:  mu: -0.210884754  nElectrons: 331.000000
	SubspaceRotationAdjust: set factor to 0.0269
ElecMinimize: Iter:  14  F: -1802.916179471635132  |grad|_K:  3.569e-06  alpha:  4.906e-01  linmin:  3.384e-05  t[s]:  71858.29
	FillingsUpdate:  mu: -0.209880407  nElectrons: 331.000000
	SubspaceRotationAdjust: set factor to 0.0236
ElecMinimize: Iter:  15  F: -1802.916359384715861  |grad|_K:  2.806e-06  alpha:  3.250e-01  linmin:  3.733e-07  t[s]:  72229.60
	FillingsUpdate:  mu: -0.208574885  nElectrons: 331.000000
	SubspaceRotationAdjust: set factor to 0.0302
ElecMinimize: Iter:  16  F: -1802.916550673389111  |grad|_K:  2.444e-06  alpha:  5.582e-01  linmin:  2.518e-05  t[s]:  72600.23
	FillingsUpdate:  mu: -0.207005646  nElectrons: 331.000000
	SubspaceRotationAdjust: set factor to 0.0341
ElecMinimize: Iter:  17  F: -1802.916725034573119  |grad|_K:  2.729e-06  alpha:  6.714e-01  linmin:  2.440e-05  t[s]:  72968.95
	FillingsUpdate:  mu: -0.205966973  nElectrons: 331.000000
	SubspaceRotationAdjust: set factor to 0.0299
ElecMinimize: Iter:  18  F: -1802.916861384804633  |grad|_K:  2.901e-06  alpha:  4.216e-01  linmin:  4.490e-06  t[s]:  73338.61
	FillingsUpdate:  mu: -0.205011038  nElectrons: 331.000000
	SubspaceRotationAdjust: set factor to 0.0268
ElecMinimize: Iter:  19  F: -1802.917006343905996  |grad|_K:  2.365e-06  alpha:  3.953e-01  linmin:  2.984e-05  t[s]:  73711.28
	FillingsUpdate:  mu: -0.204844642  nElectrons: 331.000000
	SubspaceRotationAdjust: set factor to 0.0303
ElecMinimize: Iter:  20  F: -1802.917126133824013  |grad|_K:  1.749e-06  alpha:  4.928e-01  linmin: -1.888e-06  t[s]:  74080.52
	FillingsUpdate:  mu: -0.204870814  nElectrons: 331.000000
	SubspaceRotationAdjust: set factor to 0.0339
ElecMinimize: Iter:  21  F: -1802.917189063444539  |grad|_K:  1.306e-06  alpha:  4.723e-01  linmin: -4.158e-06  t[s]:  74453.85
	FillingsUpdate:  mu: -0.204821039  nElectrons: 331.000000
	SubspaceRotationAdjust: set factor to 0.0298
ElecMinimize: Iter:  22  F: -1802.917216350982471  |grad|_K:  1.184e-06  alpha:  3.671e-01  linmin:  3.350e-06  t[s]:  74831.08
	FillingsUpdate:  mu: -0.205108538  nElectrons: 331.000000
	SubspaceRotationAdjust: set factor to 0.0309
[...]
ElecMinimize: Iter:   0  G: -1745.136195913840993  |grad|_K:  2.107e-04  alpha:  1.000e+00
	FillingsUpdate:  mu: -0.173600000  nElectrons: 331.061880
	SubspaceRotationAdjust: set factor to 0.00271
ElecMinimize: Iter:   1  G: -1745.451884484040420  |grad|_K:  2.604e-05  alpha:  1.793e-01  linmin:  1.516e-01  t[s]:  11224.25
	FillingsUpdate:  mu: -0.173600000  nElectrons: 331.011178
	SubspaceRotationAdjust: set factor to 0.0011
ElecMinimize: Iter:   2  G: -1745.458297451922363  |grad|_K:  5.894e-06  alpha:  2.363e-01  linmin:  5.280e-04  t[s]:  11590.46
	FillingsUpdate:  mu: -0.173600000  nElectrons: 331.031375
	SubspaceRotationAdjust: set factor to 0.00208
ElecMinimize: Iter:   3  G: -1745.459107868282217  |grad|_K:  3.247e-06  alpha:  5.357e-01  linmin:  1.758e-04  t[s]:  11962.86
	FillingsUpdate:  mu: -0.173600000  nElectrons: 331.042360
	SubspaceRotationAdjust: set factor to 0.00262
ElecMinimize: Iter:   4  G: -1745.459331510092170  |grad|_K:  1.709e-06  alpha:  4.869e-01  linmin: -2.419e-05  t[s]:  12333.34
	FillingsUpdate:  mu: -0.173600000  nElectrons: 331.047122
	SubspaceRotationAdjust: set factor to 0.00295
ElecMinimize: Iter:   5  G: -1745.459389839290225  |grad|_K:  1.284e-06  alpha:  4.585e-01  linmin: -1.284e-05  t[s]:  12704.06
	FillingsUpdate:  mu: -0.173600000  nElectrons: 331.047835
	SubspaceRotationAdjust: set factor to 0.00391
ElecMinimize: Iter:   6  G: -1745.459448344966404  |grad|_K:  1.466e-06  alpha:  8.144e-01  linmin:  7.261e-06  t[s]:  13071.74
	FillingsUpdate:  mu: -0.173600000  nElectrons: 331.044848
	SubspaceRotationAdjust: set factor to 0.00438
ElecMinimize: Iter:   7  G: -1745.459538977027933  |grad|_K:  1.768e-06  alpha:  9.679e-01  linmin:  2.048e-05  t[s]:  13439.44
	FillingsUpdate:  mu: -0.173600000  nElectrons: 331.044083
	SubspaceRotationAdjust: set factor to 0.00501
ElecMinimize: Iter:   8  G: -1745.459617632834806  |grad|_K:  1.809e-06  alpha:  5.777e-01  linmin:  3.570e-06  t[s]:  13808.60
	FillingsUpdate:  mu: -0.173600000  nElectrons: 331.042919
	SubspaceRotationAdjust: set factor to 0.00601
ElecMinimize: Iter:   9  G: -1745.459721909372547  |grad|_K:  1.768e-06  alpha:  7.314e-01  linmin: -1.799e-05  t[s]:  14175.97
	FillingsUpdate:  mu: -0.173600000  nElectrons: 331.038140
	SubspaceRotationAdjust: set factor to 0.00761
ElecMinimize: Iter:  10  G: -1745.459822196710093  |grad|_K:  1.846e-06  alpha:  7.364e-01  linmin:  1.142e-05  t[s]:  14550.69
	FillingsUpdate:  mu: -0.173600000  nElectrons: 331.036455
	SubspaceRotationAdjust: set factor to 0.00886
ElecMinimize: Iter:  11  G: -1745.459928956273188  |grad|_K:  2.145e-06  alpha:  7.193e-01  linmin: -4.268e-06  t[s]:  14918.86
	FillingsUpdate:  mu: -0.173600000  nElectrons: 331.029634
	SubspaceRotationAdjust: set factor to 0.00916
ElecMinimize: Iter:  12  G: -1745.460053523898296  |grad|_K:  2.080e-06  alpha:  6.210e-01  linmin:  2.374e-05  t[s]:  15289.57
	FillingsUpdate:  mu: -0.173600000  nElectrons: 331.033467
	SubspaceRotationAdjust: set factor to 0.0082
ElecMinimize: Iter:  13  G: -1745.460148283826584  |grad|_K:  1.824e-06  alpha:  5.034e-01  linmin: -1.155e-05  t[s]:  15658.39
	FillingsUpdate:  mu: -0.173600000  nElectrons: 331.028566
	SubspaceRotationAdjust: set factor to 0.00696
ElecMinimize: Iter:  14  G: -1745.460202094988745  |grad|_K:  1.375e-06  alpha:  3.709e-01  linmin:  6.272e-06  t[s]:  16029.60
	FillingsUpdate:  mu: -0.173600000  nElectrons: 331.031498
	SubspaceRotationAdjust: set factor to 0.007
ElecMinimize: Iter:  15  G: -1745.460235681654012  |grad|_K:  9.953e-07  alpha:  4.076e-01  linmin: -1.477e-05  t[s]:  16398.17
	FillingsUpdate:  mu: -0.173600000  nElectrons: 331.030896
	SubspaceRotationAdjust: set factor to 0.00937
ElecMinimize: Iter:  16  G: -1745.460254334501542  |grad|_K:  7.546e-07  alpha:  4.321e-01  linmin:  6.358e-06  t[s]:  16765.28
	FillingsUpdate:  mu: -0.173600000  nElectrons: 331.029616
	SubspaceRotationAdjust: set factor to 0.0107
ElecMinimize: Iter:  17  G: -1745.460269327538299  |grad|_K:  7.707e-07  alpha:  6.044e-01  linmin:  4.845e-06  t[s]:  17134.77
	FillingsUpdate:  mu: -0.173600000  nElectrons: 331.032282
	SubspaceRotationAdjust: set factor to 0.0104
ElecMinimize: Iter:  18  G: -1745.460280698086081  |grad|_K:  8.753e-07  alpha:  4.396e-01  linmin: -1.982e-06  t[s]:  17497.93
	FillingsUpdate:  mu: -0.173600000  nElectrons: 331.030361
	SubspaceRotationAdjust: set factor to 0.0094
ElecMinimize: Iter:  19  G: -1745.460293341637453  |grad|_K:  7.512e-07  alpha:  3.787e-01  linmin:  5.718e-06  t[s]:  17865.07
	FillingsUpdate:  mu: -0.173600000  nElectrons: 331.031998
	SubspaceRotationAdjust: set factor to 0.00949
ElecMinimize: Iter:  20  G: -1745.460305702809137  |grad|_K:  6.316e-07  alpha:  5.028e-01  linmin: -1.736e-05  t[s]:  18228.65
	FillingsUpdate:  mu: -0.173600000  nElectrons: 331.031669
	SubspaceRotationAdjust: set factor to 0.0106
ElecMinimize: Iter:  21  G: -1745.460314262752945  |grad|_K:  4.916e-07  alpha:  4.922e-01  linmin: -1.125e-06  t[s]:  18597.58
	FillingsUpdate:  mu: -0.173600000  nElectrons: 331.031789
	SubspaceRotationAdjust: set factor to 0.0132
ElecMinimize: Iter:  22  G: -1745.460319654519026  |grad|_K:  3.807e-07  alpha:  5.121e-01  linmin: -3.429e-06  t[s]:  18968.42
	FillingsUpdate:  mu: -0.173600000  nElectrons: 331.031626
	SubspaceRotationAdjust: set factor to 0.0171
ElecMinimize: Iter:  23  G: -1745.460322728366464  |grad|_K:  3.256e-07  alpha:  4.866e-01  linmin:  9.138e-06  t[s]:  19337.57
	FillingsUpdate:  mu: -0.173600000  nElectrons: 331.031921
	SubspaceRotationAdjust: set factor to 0.0205
ElecMinimize: Iter:  24  G: -1745.460325232539617  |grad|_K:  3.317e-07  alpha:  5.424e-01  linmin: -4.070e-06  t[s]:  19703.98
	FillingsUpdate:  mu: -0.173600000  nElectrons: 331.030738
	SubspaceRotationAdjust: set factor to 0.0139
ElecMinimize: Iter:  25  G: -1745.460326586695828  |grad|_K:  4.521e-07  alpha:  2.823e-01  linmin:  1.382e-06  t[s]:  20075.07
	FillingsUpdate:  mu: -0.173600000  nElectrons: 331.031630
	SubspaceRotationAdjust: set factor to 0.0114
ElecMinimize: Iter:  26  G: -1745.460328270641639  |grad|_K:  3.133e-07  alpha:  1.892e-01  linmin: -1.818e-06  t[s]:  20441.49
	FillingsUpdate:  mu: -0.173600000  nElectrons: 331.031357
	SubspaceRotationAdjust: set factor to 0.0131
ElecMinimize: Iter:  27  G: -1745.460330248385617  |grad|_K:  2.619e-07  alpha:  4.625e-01  linmin:  5.070e-06  t[s]:  20810.95
	FillingsUpdate:  mu: -0.173600000  nElectrons: 331.030817
	SubspaceRotationAdjust: set factor to 0.0134
ElecMinimize: Iter:  28  G: -1745.460331705807903  |grad|_K:  2.573e-07  alpha:  4.880e-01  linmin:  1.126e-05  t[s]:  21180.87
	FillingsUpdate:  mu: -0.173600000  nElectrons: 331.031505
	SubspaceRotationAdjust: set factor to 0.0105
ElecMinimize: Iter:  29  G: -1745.460332411208128  |grad|_K:  2.347e-07  alpha:  2.447e-01  linmin: -3.753e-06  t[s]:  21546.39
	FillingsUpdate:  mu: -0.173600000  nElectrons: 331.030991
	SubspaceRotationAdjust: set factor to 0.0105
ElecMinimize: Iter:  30  G: -1745.460333068865566  |grad|_K:  1.451e-07  alpha:  2.737e-01  linmin: -5.049e-06  t[s]:  21912.32
	FillingsUpdate:  mu: -0.173600000  nElectrons: 331.030984
	SubspaceRotationAdjust: set factor to 0.0133
ElecMinimize: Iter:  31  G: -1745.460333476384676  |grad|_K:  1.130e-07  alpha:  4.415e-01  linmin: -1.837e-04  t[s]:  22278.23
	FillingsUpdate:  mu: -0.173600000  nElectrons: 331.031257
	SubspaceRotationAdjust: set factor to 0.0104
ElecMinimize: Iter:  32  G: -1745.460333695951249  |grad|_K:  1.168e-07  alpha:  3.930e-01  linmin: -7.598e-05  t[s]:  22649.64
	FillingsUpdate:  mu: -0.173600000  nElectrons: 331.030934
	SubspaceRotationAdjust: set factor to 0.00963
ElecMinimize: Iter:  33  G: -1745.460333838187807  |grad|_K:  9.706e-08  alpha:  2.383e-01  linmin: -3.185e-05  t[s]:  23025.25
ElecMinimize: Converged (|Delta G|<3.710558e-07 for 2 iters).
Setting wave functions to eigenvectors of Hamiltonian

Electronic minimization # 3 changed total free energy by -4.460552e-05 at t[s]:  23041.57

---------------------- Fluid Minimization # 4 -----------------------
FluidMinimize: Iter:   0  G: -0.008145339906872  |grad|_K:  1.365e-04  alpha:  1.000e+00
FluidMinimize: Iter:   1  G: -0.008145339906872  |grad|_K:  1.365e-04  alpha:  3.074e-23  linmin: -1.206e-01  cgtest:  1.000e+00  t[s]:  23042.40
FluidMinimize: 	Step increased G by 1.040834e-17, reducing alpha to 3.073950e-24.
FluidMinimize: 	Step increased G by 1.040834e-17, reducing alpha to 3.073950e-25.
FluidMinimize: 	Step increased G by 1.040834e-17, reducing alpha to 3.073950e-26.
FluidMinimize: 	Step increased G by 1.040834e-17, reducing alpha to 3.073950e-27.
FluidMinimize: 	Step increased G by 1.040834e-17, reducing alpha to 3.073950e-28.
FluidMinimize: 	Step increased G by 1.387779e-17, reducing alpha to 3.073950e-29.
FluidMinimize: 	Step failed to reduce G after 6 attempts. Quitting step.
FluidMinimize: 	Undoing step.
FluidMinimize: 	Step failed: resetting search direction.
FluidMinimize: Iter:   2  G: -0.008145339906872  |grad|_K:  1.365e-04  alpha:  3.074e-29
FluidMinimize: 	Step increased G by 3.469447e-18, reducing alpha to 3.073950e-24.
FluidMinimize: 	Step increased G by 6.938894e-18, reducing alpha to 3.073950e-25.
FluidMinimize: 	Step increased G by 6.938894e-18, reducing alpha to 3.073950e-26.
FluidMinimize: 	Step increased G by 1.040834e-17, reducing alpha to 3.073950e-27.
FluidMinimize: 	Step increased G by 1.040834e-17, reducing alpha to 3.073950e-28.
FluidMinimize: 	Step increased G by 6.938894e-18, reducing alpha to 3.073950e-29.
FluidMinimize: 	Step failed to reduce G after 6 attempts. Quitting step.
FluidMinimize: 	Undoing step.
FluidMinimize: 	Step failed along negative gradient direction.
FluidMinimize: Probably at roundoff error limit. (Stopping)

Fluid minimization # 4 changed total free energy by 0.000000e+00 at t[s]:  23046.75

-------------------- Electronic Minimization # 4 ---------------------
	FillingsUpdate:  mu: -0.173600000  nElectrons: 331.143629
ElecMinimize: Iter:   0  G: -1745.454040579948924  |grad|_K:  3.322e-05  alpha:  1.000e+00
	FillingsUpdate:  mu: -0.173600000  nElectrons: 331.041918
	SubspaceRotationAdjust: set factor to 0.0241
ElecMinimize: Iter:   1  G: -1745.460103672381820  |grad|_K:  2.937e-06  alpha:  1.250e-01  linmin: -1.972e-02  t[s]:  23572.36
	FillingsUpdate:  mu: -0.173600000  nElectrons: 331.033411
	SubspaceRotationAdjust: set factor to 0.0192
ElecMinimize: Iter:   2  G: -1745.460245247051262  |grad|_K:  1.601e-06  alpha:  3.734e-01  linmin:  4.507e-05  t[s]:  23940.07
	FillingsUpdate:  mu: -0.173600000  nElectrons: 331.037021
	SubspaceRotationAdjust: set factor to 0.0134
ElecMinimize: Iter:   3  G: -1745.460260748467590  |grad|_K:  1.592e-06  alpha:  1.389e-01  linmin:  5.118e-05  t[s]:  24309.37
	FillingsUpdate:  mu: -0.173600000  nElectrons: 331.032746
	SubspaceRotationAdjust: set factor to 0.0193
ElecMinimize: Iter:   4  G: -1745.460287639584521  |grad|_K:  8.191e-07  alpha:  2.435e-01  linmin:  8.641e-05  t[s]:  24677.98
	FillingsUpdate:  mu: -0.173600000  nElectrons: 331.030046
	SubspaceRotationAdjust: set factor to 0.0115
ElecMinimize: Iter:   5  G: -1745.460300181794082  |grad|_K:  1.167e-06  alpha:  4.293e-01  linmin:  1.910e-05  t[s]:  25043.73
	FillingsUpdate:  mu: -0.173600000  nElectrons: 331.032764
	SubspaceRotationAdjust: set factor to 0.00816
ElecMinimize: Iter:   6  G: -1745.460307212817270  |grad|_K:  6.769e-07  alpha:  1.186e-01  linmin:  9.351e-05  t[s]:  25411.01
ElecMinimize: 	Predicted alpha/alphaT>3.000000, increasing alphaT to 3.558583e-01.
	FillingsUpdate:  mu: -0.173600000  nElectrons: 331.034083
	SubspaceRotationAdjust: set factor to 0.00617
ElecMinimize: Iter:   7  G: -1745.460317446221097  |grad|_K:  7.315e-07  alpha:  5.130e-01  linmin: -4.866e-05  t[s]:  25867.02
	FillingsUpdate:  mu: -0.173600000  nElectrons: 331.031564
	SubspaceRotationAdjust: set factor to 0.00494
ElecMinimize: Iter:   8  G: -1745.460323133850125  |grad|_K:  4.996e-07  alpha:  2.437e-01  linmin: -3.045e-05  t[s]:  26237.34
	FillingsUpdate:  mu: -0.173600000  nElectrons: 331.030495
	SubspaceRotationAdjust: set factor to 0.00512
ElecMinimize: Iter:   9  G: -1745.460327384349057  |grad|_K:  4.080e-07  alpha:  3.906e-01  linmin: -4.333e-05  t[s]:  26604.93
	FillingsUpdate:  mu: -0.173600000  nElectrons: 331.031490
	SubspaceRotationAdjust: set factor to 0.00531
ElecMinimize: Iter:  10  G: -1745.460329767548274  |grad|_K:  2.694e-07  alpha:  3.284e-01  linmin:  1.170e-06  t[s]:  26975.61
	FillingsUpdate:  mu: -0.173600000  nElectrons: 331.031904
	SubspaceRotationAdjust: set factor to 0.00603
ElecMinimize: Iter:  11  G: -1745.460330841033738  |grad|_K:  2.112e-07  alpha:  3.394e-01  linmin: -7.323e-05  t[s]:  27345.70
	FillingsUpdate:  mu: -0.173600000  nElectrons: 331.031501
	SubspaceRotationAdjust: set factor to 0.00664
ElecMinimize: Iter:  12  G: -1745.460331571249753  |grad|_K:  1.678e-07  alpha:  3.748e-01  linmin: -2.279e-04  t[s]:  27711.16
	FillingsUpdate:  mu: -0.173600000  nElectrons: 331.031390
	SubspaceRotationAdjust: set factor to 0.00819
ElecMinimize: Iter:  13  G: -1745.460332025309754  |grad|_K:  1.513e-07  alpha:  3.692e-01  linmin:  1.167e-04  t[s]:  28083.31
	FillingsUpdate:  mu: -0.173600000  nElectrons: 331.031756
	SubspaceRotationAdjust: set factor to 0.00844
ElecMinimize: Iter:  14  G: -1745.460332494345721  |grad|_K:  1.747e-07  alpha:  4.709e-01  linmin:  7.223e-06  t[s]:  28451.35
	FillingsUpdate:  mu: -0.173600000  nElectrons: 331.031546
	SubspaceRotationAdjust: set factor to 0.0097
ElecMinimize: Iter:  15  G: -1745.460333061091887  |grad|_K:  1.730e-07  alpha:  4.262e-01  linmin: -1.897e-05  t[s]:  28823.11
	FillingsUpdate:  mu: -0.173600000  nElectrons: 331.031214
	SubspaceRotationAdjust: set factor to 0.00996
ElecMinimize: Iter:  16  G: -1745.460333762419623  |grad|_K:  2.066e-07  alpha:  5.363e-01  linmin: -3.216e-05  t[s]:  29188.32
	FillingsUpdate:  mu: -0.173600000  nElectrons: 331.031772
	SubspaceRotationAdjust: set factor to 0.0082
ElecMinimize: Iter:  17  G: -1745.460334261599655  |grad|_K:  1.540e-07  alpha:  2.685e-01  linmin:  8.996e-07  t[s]:  29552.19
	FillingsUpdate:  mu: -0.173600000  nElectrons: 331.031740
	SubspaceRotationAdjust: set factor to 0.00939
ElecMinimize: Iter:  18  G: -1745.460334668691758  |grad|_K:  1.204e-07  alpha:  3.947e-01  linmin:  6.257e-05  t[s]:  29921.76
	FillingsUpdate:  mu: -0.173600000  nElectrons: 331.031542
	SubspaceRotationAdjust: set factor to 0.00857
ElecMinimize: Iter:  19  G: -1745.460334852417191  |grad|_K:  8.183e-08  alpha:  2.920e-01  linmin: -2.601e-05  t[s]:  30296.94
ElecMinimize: Converged (|Delta G|<4.460552e-07 for 2 iters).
Setting wave functions to eigenvectors of Hamiltonian

Electronic minimization # 4 changed total free energy by -1.014229e-06 at t[s]:  30312.26

Fluid<-->Electron self-consistency loop converged to 1.000000e-05 hartrees after 4 minimization pairs at t[s]:  30312.26.

# Ionic positions in lattice coordinates:
ion O   0.289315997496488   0.444804719758065   0.316841227096974 1
ion C   0.490836900684414   0.498147706771376   0.287489972073686 1
ion H   0.703217264557605   0.554471409368245   0.305778747039754 1
ion Pt   0.333300000000000   0.166700000000000  -0.200100000000000 0
ion Pt   0.333300000000000   0.666700000000000  -0.200100000000000 0
ion Pt   0.833300000000000   0.166700000000000  -0.200100000000000 0
ion Pt   0.833300000000000   0.666700000000000  -0.200100000000000 0
ion Pt   0.000000000000000   0.000000000000000  -0.100000000000000 0
ion Pt   0.000000000000000   0.500000000000000  -0.100000000000000 0
ion Pt   0.500000000000000   0.000000000000000  -0.100000000000000 0
ion Pt   0.500000000000000   0.500000000000000  -0.100000000000000 0
ion Pt   0.166447092463077   0.333057148921173  -0.000435200174868 1
ion Pt   0.166960273327682   0.833366718807221  -0.002130874894974 1
ion Pt   0.666674310778125   0.333187610111839  -0.000382266410428 1
ion Pt   0.666897538922900   0.833475164136785  -0.000342804343971 1
ion Pt   0.333456736481222   0.166153321260428   0.098188756263989 1
ion Pt   0.333842415281035   0.667159254747133   0.097968604639641 1
ion Pt   0.833292086122773   0.166662903777848   0.098962740166939 1
ion Pt   0.835158871435391   0.667316434867824   0.097877520486561 1
ion Pt   0.000911453169900  -0.000046035946405   0.197776656219568 1
ion Pt   0.002196675546812   0.499898313476454   0.197896534869056 1
ion Pt   0.500192411492756   0.000208744020670   0.198239308058775 1
ion Pt   0.502768874815698   0.500301177511711   0.200077118267412 1


# Forces in Lattice coordinates:
force O   0.028035506670467  -0.002837012608580   0.138214221346814 1
force C   0.053713583286413  -0.014599182487263  -0.073363408046871 1
force H  -0.089335044976565   0.023841600895487   0.048136321110818 1
force Pt   0.000215973619175  -0.000078510444603  -0.034140288451028 0
force Pt   0.000588388167022  -0.000079944035394  -0.031141428588970 0
force Pt  -0.000338860783845  -0.000323819126610  -0.000852061069521 0
force Pt  -0.000441760308406   0.000212695306318  -0.028216060318848 0
force Pt  -0.011474078392680   0.011553736444462  -0.052511431832915 0
force Pt   0.000095392220338  -0.012261669010750  -0.057504254354053 0
force Pt   0.012315837036253  -0.000070939970708  -0.050249667104852 0
force Pt  -0.000066745830307  -0.000165998620757   0.010584714295936 0
force Pt   0.000434543401289  -0.000202263597931  -0.050722468865227 1
force Pt   0.001482737178568  -0.000529593303153   0.043949236805722 1
force Pt   0.000748164798834  -0.000095827485174  -0.055242272894040 1
force Pt   0.000914320738861  -0.000330759736091  -0.061564832470287 1
force Pt   0.002986513812511   0.006095439360343  -0.007195839078289 1
force Pt   0.008931472141454  -0.007228643724132   0.005861846334905 1
force Pt   0.002953677668165  -0.001326273396182  -0.089584453237617 1
force Pt  -0.006323223424407  -0.001030088080911   0.019015140679956 1
force Pt   0.007356955115859  -0.005031715737776  -0.053389678934168 1
force Pt   0.000875276510006   0.003233589298070  -0.071569664995137 1
force Pt   0.004321320135126  -0.004482070263572  -0.064239633523885 1
force Pt  -0.026014222940767   0.007792222079136   0.564025597219824 1

# Energy components:
   A_diel =       -0.0083021815078485
   Eewald =    26868.1961234782320389
       EH =    28476.2763096905982820
     Eloc =   -57462.9168518351216335
      Enl =      -18.0041777430339103
      Exc =     -571.9912066362128371
 Exc_core =      324.9288263339406626
       KE =      580.8236634167261627
  MuShift =       -0.0012734066674683
-------------------------------------
     Etot =    -1802.6968888830426749
       TS =        0.2305216899671397
-------------------------------------
        F =    -1802.9274105730098654
      muN =      -57.4670757205926535
-------------------------------------
        G =    -1745.4603348524171906

IonicMinimize: Iter:   0  G: -1745.460334852417191  |grad|_K:  2.710e-03  t[s]:  30355.50
IonicMinimize: None of the convergence criteria satisfied after 0 iterations.

#--- Lowdin population analysis ---
# oxidation-state O -0.201
# oxidation-state C +0.293
# oxidation-state H +0.243
# oxidation-state Pt +0.003 +0.003 +0.003 +0.003 +0.011 +0.011 +0.011 +0.011 +0.016 +0.012 +0.015 +0.015 -0.006 -0.005 +0.007 -0.005 -0.011 -0.017 -0.013 -0.104


Dumping '111_2-Solvated.ionpos' ... done
Dumping '111_2-Solvated.n' ... done
Dumping '111_2-Solvated.eigStats' ... 
	eMin: -2.128496 at state 0 ( [ +0.000000 +0.000000 +0.000000 ] spin 0 )
	HOMO: -0.173830 at state 0 ( [ +0.000000 +0.000000 +0.000000 ] spin 0 )
	mu  : -0.173600
	LUMO: -0.173692 at state 9 ( [ +0.500000 +0.500000 +0.000000 ] spin 0 )
	eMax: +0.387428 at state 9 ( [ +0.500000 +0.500000 +0.000000 ] spin 0 )
	HOMO-LUMO gap: +0.000138
	Optical gap  : +0.000186 at state 0 ( [ +0.000000 +0.000000 +0.000000 ] spin 0 )
Dumping '111_2-Solvated.Ecomponents' ... done
End date and time: Sat Apr 27 16:50:06 2019  (Duration: 0-8:26:47.72)
Done!
