
*************** JDFTx 1.4.2  ***************

Start date and time: Tue Mar 26 00:41:39 2019
Executable jdftx with command-line: -i Charged.in
Running on hosts (process indices):  Juans-MBP.lan1 (0-3)
Divided in process groups (process indices):  0 (0)  1 (1)  2 (2)  3 (3)
Resource initialization completed at t[s]:      0.00
Run totals: 4 processes, 12 threads, 0 GPUs


Input parsed successfully to the following command list (including defaults):

basis kpoint-dependent
coords-type Lattice
core-overlap-check vector
coulomb-interaction Slab 001
coulomb-truncation-embed 0 0 0
davidson-band-ratio 1.1
dump End State BoundCharge
dump-name common.$VAR
elec-cutoff 20 100
elec-eigen-algo Davidson
elec-ex-corr gga-PBEsol
elec-smearing Fermi 0.01
electronic-minimize  \
	dirUpdateScheme      FletcherReeves \
	linminMethod         DirUpdateRecommended \
	nIterations          200 \
	history              15 \
	knormThreshold       0 \
	energyDiffThreshold  1e-08 \
	nEnergyDiff          2 \
	alphaTstart          1 \
	alphaTmin            1e-10 \
	updateTestStepSize   yes \
	alphaTreduceFactor   0.1 \
	alphaTincreaseFactor 3 \
	nAlphaAdjustMax      3 \
	wolfeEnergy          0.0001 \
	wolfeGradient        0.9 \
	fdTest               no
exchange-regularization WignerSeitzTruncated
fluid LinearPCM 298.000000 1.013250
fluid-anion ClO4- 1 MeanFieldLJ \
	epsBulk 1 \
	pMol 0 \
	epsInf 1 \
	Pvap 0 \
	sigmaBulk 0 \
	Rvdw 4.55424 \
	Res 0
fluid-cation K+ 1 MeanFieldLJ \
	epsBulk 1 \
	pMol 0 \
	epsInf 1 \
	Pvap 0 \
	sigmaBulk 0 \
	Rvdw 2.85349 \
	Res 0
fluid-ex-corr lda-TF lda-PZ
fluid-gummel-loop 10 1.000000e-05
fluid-minimize  \
	dirUpdateScheme      PolakRibiere \
	linminMethod         DirUpdateRecommended \
	nIterations          400 \
	history              15 \
	knormThreshold       1e-11 \
	energyDiffThreshold  0 \
	nEnergyDiff          2 \
	alphaTstart          1 \
	alphaTmin            1e-10 \
	updateTestStepSize   yes \
	alphaTreduceFactor   0.1 \
	alphaTincreaseFactor 3 \
	nAlphaAdjustMax      6 \
	wolfeEnergy          0.0001 \
	wolfeGradient        0.9 \
	fdTest               no
fluid-solvent H2O 55.338 ScalarEOS \
	epsBulk 78.4 \
	pMol 0.92466 \
	epsInf 1.77 \
	Pvap 1.06736e-10 \
	sigmaBulk 4.62e-05 \
	Rvdw 2.61727 \
	Res 1.42
forces-output-coords Positions
initial-state common.$VAR
ion Pt   0.333333000000000  -0.333333000000000  -0.237676000000000 1
ion Pt  -0.333333000000000   0.333333000000000  -0.118838000000000 1
ion Pt   0.000000000000000   0.000000000000000   0.000000000000000 1
ion Pt   0.333333000000000  -0.333333000000000   0.118838000000000 1
ion Pt  -0.333333000000000   0.333333000000000   0.237676000000000 1
ion-species GBRV/$ID_pbesol.uspp
ion-width Ecut
ionic-minimize  \
	dirUpdateScheme      L-BFGS \
	linminMethod         DirUpdateRecommended \
	nIterations          0 \
	history              15 \
	knormThreshold       0.0001 \
	energyDiffThreshold  1e-06 \
	nEnergyDiff          2 \
	alphaTstart          1 \
	alphaTmin            1e-10 \
	updateTestStepSize   yes \
	alphaTreduceFactor   0.1 \
	alphaTincreaseFactor 3 \
	nAlphaAdjustMax      3 \
	wolfeEnergy          0.0001 \
	wolfeGradient        0.9 \
	fdTest               no
kpoint   0.000000000000   0.000000000000   0.000000000000  1.00000000000000
kpoint-folding 12 12 1 
latt-move-scale 1 1 1
latt-scale 1 1 1 
lattice Hexagonal 5.23966 36
lattice-minimize  \
	dirUpdateScheme      L-BFGS \
	linminMethod         DirUpdateRecommended \
	nIterations          0 \
	history              15 \
	knormThreshold       0 \
	energyDiffThreshold  1e-06 \
	nEnergyDiff          2 \
	alphaTstart          1 \
	alphaTmin            1e-10 \
	updateTestStepSize   yes \
	alphaTreduceFactor   0.1 \
	alphaTincreaseFactor 3 \
	nAlphaAdjustMax      3 \
	wolfeEnergy          0.0001 \
	wolfeGradient        0.9 \
	fdTest               no
lcao-params -1 1e-06 0.01
pcm-variant CANDLE
spintype no-spin
subspace-rotation-factor 1 yes
symmetries automatic
symmetry-threshold 0.0001
target-mu -0.1684 no




---------- Setting up symmetries ----------

Found 24 point-group symmetries of the bravais lattice
Found 12 space-group symmetries with basis
Applied RMS atom displacement 2.70575e-06 bohrs to make symmetries exact.

---------- Initializing the Grid ----------
R = 
[    5.23966   -2.61983          0  ]
[          0    4.53768          0  ]
[          0          0         36  ]
unit cell volume = 855.932
G =
[    1.19916   0.692335         -0  ]
[          0    1.38467          0  ]
[          0         -0   0.174533  ]
Minimum fftbox size, Smin = [  24  24  164  ]
Chosen fftbox size, S = [  24  24  168  ]

---------- Initializing tighter grid for wavefunction operations ----------
R = 
[    5.23966   -2.61983          0  ]
[          0    4.53768          0  ]
[          0          0         36  ]
unit cell volume = 855.932
G =
[    1.19916   0.692335         -0  ]
[          0    1.38467          0  ]
[          0         -0   0.174533  ]
Minimum fftbox size, Smin = [  24  24  148  ]
Chosen fftbox size, S = [  24  24  150  ]

---------- Exchange Correlation functional ----------
Initalized PBEsol GGA exchange.
Initalized PBEsol GGA correlation.

---------- Setting up pseudopotentials ----------
Width of ionic core gaussian charges (only for fluid interactions / plotting) set to 0.397384

Reading pseudopotential file '/Users/juanmendezvalderrama/Documents/JDFTX/build/pseudopotentials/GBRV/pt_pbesol.uspp':
  Title: Pt.  Created by USPP 7.3.6 on 22-9-15
  Reference state energy: -104.899005.  16 valence electrons in orbitals:
    |510>  occupation: 6  eigenvalue: -2.158847
    |520>  occupation: 9.5  eigenvalue: -0.336311
    |600>  occupation: 0  eigenvalue: -0.320324
    |610>  occupation: 0  eigenvalue: -0.119800
  lMax: 2  lLocal: 3  QijEcut: 5.5
  6 projectors sampled on a log grid with 745 points:
    l: 0  eig: -0.320324  rCut: 2.45
    l: 0  eig: 1.500000  rCut: 2.45
    l: 1  eig: -2.158847  rCut: 1.6
    l: 1  eig: -0.119800  rCut: 1.6
    l: 2  eig: -0.500000  rCut: 1.6
    l: 2  eig: -0.336311  rCut: 1.6
  Partial core density with radius 1.1
  Transforming core density to a uniform radial grid of dG=0.02 with 1620 points.
  Transforming local potential to a uniform radial grid of dG=0.02 with 1620 points.
  Transforming nonlocal projectors to a uniform radial grid of dG=0.02 with 432 points.
  Transforming density augmentations to a uniform radial grid of dG=0.02 with 1620 points.
  Transforming atomic orbitals to a uniform radial grid of dG=0.02 with 432 points.
  Core radius for overlap checks: 2.45 bohrs.

Initialized 1 species with 5 total atoms.

Folded 1 k-points by 12x12x1 to 144 k-points.

---------- Setting up k-points, bands, fillings ----------
Reduced to 19 k-points under symmetry. 
Computing the number of bands and number of electrons
Reading initial fillings from file common.fillings.
nElectrons:  80.000000   nBands: 60   nStates: 19

----- Setting up reduced wavefunction bases (one per k-point) -----
average nbasis = 3657.132 , ideal nbasis = 3656.607

---------- Setting up coulomb interaction ----------
Fluid mode embedding: using embedded box, but periodic Coulomb kernel.
(Fluid response is responsible for (approximate) separation between periodic images.)
Setting up double-sized grid for truncated Coulomb potentials:
R = 
[    5.23966   -2.61983          0  ]
[          0    4.53768          0  ]
[          0          0         72  ]
unit cell volume = 1711.86
G =
[    1.19916   0.692335         -0  ]
[          0    1.38467          0  ]
[          0         -0  0.0872665  ]
Chosen fftbox size, S = [  24  24  336  ]
Integer grid location selected as the embedding center:
   Grid: [  0  0  0  ]
   Lattice: [  0  0  0  ]
   Cartesian: [  0  0  0  ]
Constructing Wigner-Seitz cell: 8 faces (6 quadrilaterals, 2 hexagons)
Range-separation parameter for embedded mesh potentials due to point charges: 0.589462 bohrs.

Initializing van der Waals corrections
	NOTE: vdW corrections apply only for interactions with fluid.
	Pt:  C6:  815.23 Eh-a0^6  R0: 3.326 a0 (WARNING: beyond Grimme's data set)

---------- Setting up ewald sum ----------
Optimum gaussian width for ewald sums = 3.649540 bohr.
Real space sum over 1805 unit cells with max indices [  9  9  2  ]
Reciprocal space sum over 5103 terms with max indices [  4  4  31  ]

---------- Allocating electronic variables ----------
Initializing wave functions:  reading from 'common.wfns'
----- createFluidSolver() ----- (Fluid-side solver setup)
   Initializing fluid molecule 'H2O'
     Initializing site 'O'
       Electron density: proportional to exp(-r/0.36935)*erfc((r-0.51523)/0.36823) with norm 6.826
       Charge density: gaussian nuclear width 0.478731 with net site charge 0.826
       Polarizability: cuspless exponential with width 0.32 and norm 3.73
       Hard sphere radius: 2.57003 bohrs
       Positions in reference frame:
         [ +0.000000 +0.000000 +0.000000 ]
     Initializing site 'H'
       Electron density: proportional to exp(-r/0.34641)*erfc((r-0)/0.390882) with norm 0.587
       Charge density: gaussian nuclear width 0.377945 with net site charge -0.413
       Polarizability: cuspless exponential with width 0.39 and norm 3.3
       Positions in reference frame:
         [ +0.000000 -1.441945 +1.122523 ]
         [ +0.000000 +1.441945 +1.122523 ]
     Net charge: 0   dipole magnitude: 0.927204
     Initializing spherical shell mfKernel with radius 2.61727 Bohr
     deltaS corrections:
       site 'O': -7.54299
       site 'H': -6.83917
   Initializing fluid molecule 'K+'
     Initializing site 'K'
       Electron density: proportional to exp(-r/0.35529)*erfc((r-0.82179)/0.45583) with norm 8.323
       Charge density: gaussian nuclear width 0.475581 with net site charge -1
       Hard sphere radius: 2.70798 bohrs
       Positions in reference frame:
         [ +0.000000 +0.000000 +0.000000 ]
     Net charge: -1   dipole magnitude: 0
     Initializing gaussian mfKernel with width: 2.01772 Bohr
     deltaS corrections:
       site 'K': -51.3309
   Initializing fluid molecule 'ClO4-'
     Initializing site 'Cl'
       Electron density: proportional to exp(-r/0.48793)*erfc((r-0.93371)/0.45657) with norm 6.2308
       Charge density: gaussian nuclear width 0.55117 with net site charge -0.7692
       Hard sphere radius: 4.42196 bohrs
       Positions in reference frame:
         [ +0.000000 +0.000000 +0.000000 ]
     Initializing site 'O'
       Electron density: proportional to exp(-r/0.36013)*erfc((r-0.51636)/0.37371) with norm 6.4423
       Charge density: gaussian nuclear width 0.478731 with net site charge 0.4423
       Positions in reference frame:
         [ +1.705286 +1.705286 +1.705286 ]
         [ +1.705286 -1.705286 -1.705286 ]
         [ -1.705286 +1.705286 -1.705286 ]
         [ -1.705286 -1.705286 +1.705286 ]
     Net charge: 1   dipole magnitude: 0
     Initializing gaussian mfKernel with width: 3.22033 Bohr
     deltaS corrections:
       site 'Cl': -87.0374
       site 'O': 12.0842

Correction to mu due to finite nuclear width = -0.0463682
   Cavity determined by nc: 0.00142 and sigma: 0.707107
   Nonlocal vdW cavity from gaussian model electron density with norm = 8 and sigma = 0.993594 bohr
   Charge asymmetry in cavity with sensitivity pCavity = 36.5 e-bohr/Eh
   Electrostatic cavity expanded by eta = 1.46 bohrs
   Weighted density cavitation model constrained by Nbulk: 0.0049383 bohr^-3, Pvap: 3.14029 kPa, Rvdw: 2.61727 bohr and sigmaBulk: 4.62e-05 Eh/bohr^2 at T: 298 K.
   Weighted density dispersion model using vdW pair potentials with single solvent site with sqrtC6eff: 0.77 SI.
Reading fluid state from 'common.fluidState'


---- Citations for features of the code used in this run ----

   Software package:
      R. Sundararaman, K. Letchworth-Weaver, K.A. Schwarz, D. Gunceler, Y. Ozhabes and T.A. Arias, 'JDFTx: software for joint density-functional theory', SoftwareX 6, 278 (2017)

   gga-PBEsol exchange-correlation functional:
      J.P. Perdew et al., Phys. Rev. Lett. 100, 136406 (2008)

   Pseudopotentials:
      KF Garrity, JW Bennett, KM Rabe and D Vanderbilt, Comput. Mater. Sci. 81, 446 (2014)

   Truncated Coulomb potentials:
      R. Sundararaman and T.A. Arias, Phys. Rev. B 87, 165122 (2013)

   Van der Waals correction pair-potentials:
      S. Grimme, J. Comput. Chem. 27, 1787 (2006)

   Charge-asymmetric nonlocally-determined local-electric (CANDLE) solvation model:
      R. Sundararaman and W.A. Goddard III, J. Chem. Phys. 142, 064107 (2015)

   Total energy minimization with Auxiliary Hamiltonian:
      C. Freysoldt, S. Boeck, and J. Neugebauer, Phys. Rev. B 79, 241103(R) (2009)

   Grand-canonical (fixed-potential) DFT:
      R. Sundararaman, W. A. Goddard III and T. A. Arias, J. Chem. Phys. 146, 114104 (2017)

This list may not be complete. Please suggest additional citations or
report any other bugs at https://github.com/shankar1729/jdftx/issues

Initialization completed successfully at t[s]:      2.88

Shifting auxilliary hamiltonian by 0.033039 to set nElectrons=80.000000
	Linear fluid (dielectric constant: 78.4, screening length: 5.74355 Bohr) occupying 0.596131 of unit cell:	Completed after 0 iterations at t[s]:      4.49

-------- Electronic minimization -----------
	Linear fluid (dielectric constant: 78.4, screening length: 5.74355 Bohr) occupying 0.596131 of unit cell:	Completed after 0 iterations at t[s]:      5.45
	FillingsUpdate:  mu: -0.168400000  nElectrons: 80.000000
ElecMinimize: Iter:   0  G: -431.679247468656911  |grad|_K:  1.533e-04  alpha:  1.000e+00
	Linear fluid (dielectric constant: 78.4, screening length: 5.74355 Bohr) occupying 0.645542 of unit cell:	Completed after 25 iterations at t[s]:      9.19
	Linear fluid (dielectric constant: 78.4, screening length: 5.74355 Bohr) occupying 0.603012 of unit cell:	Completed after 25 iterations at t[s]:     11.56
ElecMinimize: 	Step increased G by 1.421646e-03, reducing alpha to 1.308188e-03.
	Linear fluid (dielectric constant: 78.4, screening length: 5.74355 Bohr) occupying 0.596132 of unit cell:	Completed after 17 iterations at t[s]:     15.63
	FillingsUpdate:  mu: -0.168400000  nElectrons: 80.007817
	SubspaceRotationAdjust: set factor to 0.5
ElecMinimize: Iter:   1  G: -431.679460336108889  |grad|_K:  1.009e-04  alpha:  1.308e-03  linmin: -2.532e-01  t[s]:     17.82
	Linear fluid (dielectric constant: 78.4, screening length: 5.74355 Bohr) occupying 0.596229 of unit cell:	Completed after 13 iterations at t[s]:     20.36
	Linear fluid (dielectric constant: 78.4, screening length: 5.74355 Bohr) occupying 0.596491 of unit cell:	Completed after 14 iterations at t[s]:     22.95
	FillingsUpdate:  mu: -0.168400000  nElectrons: 80.024261
	SubspaceRotationAdjust: set factor to 0.27
ElecMinimize: Iter:   2  G: -431.679643120785272  |grad|_K:  3.003e-05  alpha:  2.539e-03  linmin: -1.363e-02  t[s]:     24.54
	Linear fluid (dielectric constant: 78.4, screening length: 5.74355 Bohr) occupying 0.596553 of unit cell:	Completed after 11 iterations at t[s]:     26.53
ElecMinimize: 	Predicted alpha/alphaT>3.000000, increasing alphaT to 7.616146e-03.
	Linear fluid (dielectric constant: 78.4, screening length: 5.74355 Bohr) occupying 0.596696 of unit cell:	Completed after 12 iterations at t[s]:     28.26
ElecMinimize: 	Predicted alpha/alphaT>3.000000, increasing alphaT to 2.284844e-02.
	Linear fluid (dielectric constant: 78.4, screening length: 5.74355 Bohr) occupying 0.597278 of unit cell:	Completed after 14 iterations at t[s]:     30.83
	Linear fluid (dielectric constant: 78.4, screening length: 5.74355 Bohr) occupying 0.598185 of unit cell:	Completed after 14 iterations at t[s]:     34.51
	FillingsUpdate:  mu: -0.168400000  nElectrons: 80.046957
	SubspaceRotationAdjust: set factor to 0.144
ElecMinimize: Iter:   3  G: -431.679805137284518  |grad|_K:  4.476e-05  alpha:  3.975e-02  linmin: -2.381e-03  t[s]:     37.43
	Linear fluid (dielectric constant: 78.4, screening length: 5.74355 Bohr) occupying 0.600794 of unit cell:	Completed after 16 iterations at t[s]:     40.92
	Linear fluid (dielectric constant: 78.4, screening length: 5.74355 Bohr) occupying 0.599868 of unit cell:	Completed after 16 iterations at t[s]:     43.94
	FillingsUpdate:  mu: -0.168400000  nElectrons: 80.061182
	SubspaceRotationAdjust: set factor to 0.105
	SubspaceRotationAdjust: resetting CG because factor has changed by 0.104721
	Linear fluid (dielectric constant: 78.4, screening length: 5.74355 Bohr) occupying 0.599868 of unit cell:	Completed after 0 iterations at t[s]:     47.43
ElecMinimize: 	State modified externally: resetting search direction.
ElecMinimize: Iter:   4  G: -431.680043380660948  |grad|_K:  1.549e-05  alpha:  2.726e-02
	Linear fluid (dielectric constant: 78.4, screening length: 5.74355 Bohr) occupying 0.599403 of unit cell:	Completed after 14 iterations at t[s]:     52.89
ElecMinimize: 	Predicted alpha/alphaT>3.000000, increasing alphaT to 8.177309e-02.
	Linear fluid (dielectric constant: 78.4, screening length: 5.74355 Bohr) occupying 0.598548 of unit cell:	Completed after 14 iterations at t[s]:     55.59
	Linear fluid (dielectric constant: 78.4, screening length: 5.74355 Bohr) occupying 0.598422 of unit cell:	Completed after 13 iterations at t[s]:     58.16
	FillingsUpdate:  mu: -0.168400000  nElectrons: 80.050909
	SubspaceRotationAdjust: set factor to 0.0403
ElecMinimize: Iter:   5  G: -431.680134474179170  |grad|_K:  1.572e-05  alpha:  9.043e-02  linmin:  1.114e-03  t[s]:     60.49
	Linear fluid (dielectric constant: 78.4, screening length: 5.74355 Bohr) occupying 0.598720 of unit cell:	Completed after 14 iterations at t[s]:     62.43
	Linear fluid (dielectric constant: 78.4, screening length: 5.74355 Bohr) occupying 0.599012 of unit cell:	Completed after 13 iterations at t[s]:     64.79
	FillingsUpdate:  mu: -0.168400000  nElectrons: 80.056302
	SubspaceRotationAdjust: set factor to 0.0526
ElecMinimize: Iter:   6  G: -431.680314494777576  |grad|_K:  6.282e-06  alpha:  1.740e-01  linmin: -4.310e-04  t[s]:     67.10
	Linear fluid (dielectric constant: 78.4, screening length: 5.74355 Bohr) occupying 0.599257 of unit cell:	Completed after 14 iterations at t[s]:     69.02
ElecMinimize: 	Predicted alpha/alphaT>3.000000, increasing alphaT to 5.220221e-01.
	Linear fluid (dielectric constant: 78.4, screening length: 5.74355 Bohr) occupying 0.599778 of unit cell:	Completed after 14 iterations at t[s]:     70.91
	Linear fluid (dielectric constant: 78.4, screening length: 5.74355 Bohr) occupying 0.600249 of unit cell:	Completed after 14 iterations at t[s]:     72.99
	FillingsUpdate:  mu: -0.168400000  nElectrons: 80.065931
	SubspaceRotationAdjust: set factor to 0.0674
ElecMinimize: Iter:   7  G: -431.680450443796190  |grad|_K:  7.367e-06  alpha:  8.169e-01  linmin: -1.518e-04  t[s]:     74.51
	Linear fluid (dielectric constant: 78.4, screening length: 5.74355 Bohr) occupying 0.602413 of unit cell:	Completed after 10 iterations at t[s]:     76.48
	Linear fluid (dielectric constant: 78.4, screening length: 5.74355 Bohr) occupying 0.602447 of unit cell:	Completed after 5 iterations at t[s]:     77.85
	FillingsUpdate:  mu: -0.168400000  nElectrons: 80.081317
	SubspaceRotationAdjust: set factor to 0.0603
ElecMinimize: Iter:   8  G: -431.680639943627966  |grad|_K:  1.255e-05  alpha:  8.286e-01  linmin: -8.733e-05  t[s]:     79.34
	Linear fluid (dielectric constant: 78.4, screening length: 5.74355 Bohr) occupying 0.625636 of unit cell:	Completed after 27 iterations at t[s]:     81.49
	Linear fluid (dielectric constant: 78.4, screening length: 5.74355 Bohr) occupying 0.606965 of unit cell:	Completed after 19 iterations at t[s]:     83.31
	FillingsUpdate:  mu: -0.168400000  nElectrons: 80.104423
	SubspaceRotationAdjust: set factor to 0.0422
ElecMinimize: Iter:   9  G: -431.680746930590772  |grad|_K:  1.224e-05  alpha:  1.609e-01  linmin: -5.815e-04  t[s]:     85.11
	Linear fluid (dielectric constant: 78.4, screening length: 5.74355 Bohr) occupying 0.609168 of unit cell:	Completed after 15 iterations at t[s]:     86.98
ElecMinimize: 	Predicted alpha/alphaT>3.000000, increasing alphaT to 4.827277e-01.
	Linear fluid (dielectric constant: 78.4, screening length: 5.74355 Bohr) occupying 0.613652 of unit cell:	Completed after 17 iterations at t[s]:     89.43
	Linear fluid (dielectric constant: 78.4, screening length: 5.74355 Bohr) occupying 0.616372 of unit cell:	Completed after 17 iterations at t[s]:     91.93
	FillingsUpdate:  mu: -0.168400000  nElectrons: 80.152991
	SubspaceRotationAdjust: set factor to 0.0477
ElecMinimize: Iter:  10  G: -431.681177009435601  |grad|_K:  1.307e-05  alpha:  6.853e-01  linmin:  1.297e-03  t[s]:     93.96
	Linear fluid (dielectric constant: 78.4, screening length: 5.74355 Bohr) occupying 0.624230 of unit cell:	Completed after 21 iterations at t[s]:     96.84
	Linear fluid (dielectric constant: 78.4, screening length: 5.74355 Bohr) occupying 0.624296 of unit cell:	Completed after 7 iterations at t[s]:     99.35
	FillingsUpdate:  mu: -0.168400000  nElectrons: 80.203777
	SubspaceRotationAdjust: set factor to 0.0501
ElecMinimize: Iter:  11  G: -431.681636652162751  |grad|_K:  1.208e-05  alpha:  6.921e-01  linmin:  9.257e-04  t[s]:    101.06
	Linear fluid (dielectric constant: 78.4, screening length: 5.74355 Bohr) occupying 0.629563 of unit cell:	Completed after 28 iterations at t[s]:    103.32
	Linear fluid (dielectric constant: 78.4, screening length: 5.74355 Bohr) occupying 0.627385 of unit cell:	Completed after 20 iterations at t[s]:    105.05
	FillingsUpdate:  mu: -0.168400000  nElectrons: 80.229014
	SubspaceRotationAdjust: set factor to 0.0333
ElecMinimize: Iter:  12  G: -431.681862637934614  |grad|_K:  1.546e-05  alpha:  3.750e-01  linmin:  1.315e-04  t[s]:    106.36
	Linear fluid (dielectric constant: 78.4, screening length: 5.74355 Bohr) occupying 0.625857 of unit cell:	Completed after 20 iterations at t[s]:    108.17
	Linear fluid (dielectric constant: 78.4, screening length: 5.74355 Bohr) occupying 0.626744 of unit cell:	Completed after 20 iterations at t[s]:    109.90
	FillingsUpdate:  mu: -0.168400000  nElectrons: 80.228727
	SubspaceRotationAdjust: set factor to 0.0293
ElecMinimize: Iter:  13  G: -431.682023187620587  |grad|_K:  9.055e-06  alpha:  1.591e-01  linmin: -1.773e-04  t[s]:    111.41
	Linear fluid (dielectric constant: 78.4, screening length: 5.74355 Bohr) occupying 0.626722 of unit cell:	Completed after 15 iterations at t[s]:    113.06
	Linear fluid (dielectric constant: 78.4, screening length: 5.74355 Bohr) occupying 0.626683 of unit cell:	Completed after 17 iterations at t[s]:    114.71
	FillingsUpdate:  mu: -0.168400000  nElectrons: 80.231853
	SubspaceRotationAdjust: set factor to 0.0421
ElecMinimize: Iter:  14  G: -431.682165252538482  |grad|_K:  6.553e-06  alpha:  4.102e-01  linmin:  1.475e-04  t[s]:    116.09
	Linear fluid (dielectric constant: 78.4, screening length: 5.74355 Bohr) occupying 0.627347 of unit cell:	Completed after 19 iterations at t[s]:    117.92
	Linear fluid (dielectric constant: 78.4, screening length: 5.74355 Bohr) occupying 0.627150 of unit cell:	Completed after 16 iterations at t[s]:    119.60
	FillingsUpdate:  mu: -0.168400000  nElectrons: 80.236392
	SubspaceRotationAdjust: set factor to 0.0377
ElecMinimize: Iter:  15  G: -431.682216638530406  |grad|_K:  6.388e-06  alpha:  2.859e-01  linmin:  2.247e-06  t[s]:    120.97
	Linear fluid (dielectric constant: 78.4, screening length: 5.74355 Bohr) occupying 0.626181 of unit cell:	Completed after 17 iterations at t[s]:    122.72
	Linear fluid (dielectric constant: 78.4, screening length: 5.74355 Bohr) occupying 0.626422 of unit cell:	Completed after 15 iterations at t[s]:    124.35
	FillingsUpdate:  mu: -0.168400000  nElectrons: 80.232258
	SubspaceRotationAdjust: set factor to 0.0374
ElecMinimize: Iter:  16  G: -431.682253679945745  |grad|_K:  4.323e-06  alpha:  2.160e-01  linmin:  1.111e-05  t[s]:    126.13
	Linear fluid (dielectric constant: 78.4, screening length: 5.74355 Bohr) occupying 0.626348 of unit cell:	Completed after 14 iterations at t[s]:    127.68
	Linear fluid (dielectric constant: 78.4, screening length: 5.74355 Bohr) occupying 0.626262 of unit cell:	Completed after 14 iterations at t[s]:    129.19
	FillingsUpdate:  mu: -0.168400000  nElectrons: 80.232063
	SubspaceRotationAdjust: set factor to 0.0549
ElecMinimize: Iter:  17  G: -431.682290103715047  |grad|_K:  3.400e-06  alpha:  4.639e-01  linmin:  7.267e-06  t[s]:    130.56
	Linear fluid (dielectric constant: 78.4, screening length: 5.74355 Bohr) occupying 0.626046 of unit cell:	Completed after 15 iterations at t[s]:    132.10
	Linear fluid (dielectric constant: 78.4, screening length: 5.74355 Bohr) occupying 0.626003 of unit cell:	Completed after 8 iterations at t[s]:    133.34
	FillingsUpdate:  mu: -0.168400000  nElectrons: 80.230969
	SubspaceRotationAdjust: set factor to 0.0694
ElecMinimize: Iter:  18  G: -431.682317081739200  |grad|_K:  3.382e-06  alpha:  5.552e-01  linmin:  8.628e-06  t[s]:    134.71
	Linear fluid (dielectric constant: 78.4, screening length: 5.74355 Bohr) occupying 0.625184 of unit cell:	Completed after 17 iterations at t[s]:    136.82
	Linear fluid (dielectric constant: 78.4, screening length: 5.74355 Bohr) occupying 0.625410 of unit cell:	Completed after 14 iterations at t[s]:    138.92
	FillingsUpdate:  mu: -0.168400000  nElectrons: 80.227488
	SubspaceRotationAdjust: set factor to 0.0486
ElecMinimize: Iter:  19  G: -431.682336497745666  |grad|_K:  4.243e-06  alpha:  4.043e-01  linmin: -9.924e-06  t[s]:    140.93
	Linear fluid (dielectric constant: 78.4, screening length: 5.74355 Bohr) occupying 0.626201 of unit cell:	Completed after 18 iterations at t[s]:    143.32
	Linear fluid (dielectric constant: 78.4, screening length: 5.74355 Bohr) occupying 0.625656 of unit cell:	Completed after 17 iterations at t[s]:    145.20
	FillingsUpdate:  mu: -0.168400000  nElectrons: 80.229311
	SubspaceRotationAdjust: set factor to 0.0417
ElecMinimize: Iter:  20  G: -431.682345830001850  |grad|_K:  3.289e-06  alpha:  1.233e-01  linmin:  2.428e-05  t[s]:    147.16
	Linear fluid (dielectric constant: 78.4, screening length: 5.74355 Bohr) occupying 0.625573 of unit cell:	Completed after 14 iterations at t[s]:    149.46
ElecMinimize: 	Predicted alpha/alphaT>3.000000, increasing alphaT to 3.700240e-01.
	Linear fluid (dielectric constant: 78.4, screening length: 5.74355 Bohr) occupying 0.625405 of unit cell:	Completed after 15 iterations at t[s]:    151.89
	Linear fluid (dielectric constant: 78.4, screening length: 5.74355 Bohr) occupying 0.625360 of unit cell:	Completed after 11 iterations at t[s]:    153.63
	FillingsUpdate:  mu: -0.168400000  nElectrons: 80.227778
	SubspaceRotationAdjust: set factor to 0.0453
ElecMinimize: Iter:  21  G: -431.682365630885556  |grad|_K:  2.939e-06  alpha:  4.358e-01  linmin:  1.725e-05  t[s]:    154.95
	Linear fluid (dielectric constant: 78.4, screening length: 5.74355 Bohr) occupying 0.624670 of unit cell:	Completed after 17 iterations at t[s]:    156.60
	Linear fluid (dielectric constant: 78.4, screening length: 5.74355 Bohr) occupying 0.624863 of unit cell:	Completed after 15 iterations at t[s]:    158.12
	FillingsUpdate:  mu: -0.168400000  nElectrons: 80.224784
	SubspaceRotationAdjust: set factor to 0.0373
ElecMinimize: Iter:  22  G: -431.682377039658775  |grad|_K:  3.826e-06  alpha:  3.151e-01  linmin: -3.261e-05  t[s]:    159.40
	Linear fluid (dielectric constant: 78.4, screening length: 5.74355 Bohr) occupying 0.625034 of unit cell:	Completed after 16 iterations at t[s]:    160.94
	Linear fluid (dielectric constant: 78.4, screening length: 5.74355 Bohr) occupying 0.624995 of unit cell:	Completed after 15 iterations at t[s]:    162.47
	FillingsUpdate:  mu: -0.168400000  nElectrons: 80.225887
	SubspaceRotationAdjust: set factor to 0.0425
ElecMinimize: Iter:  23  G: -431.682391915761912  |grad|_K:  2.883e-06  alpha:  2.416e-01  linmin: -4.188e-06  t[s]:    163.77
	Linear fluid (dielectric constant: 78.4, screening length: 5.74355 Bohr) occupying 0.624975 of unit cell:	Completed after 14 iterations at t[s]:    165.27
	Linear fluid (dielectric constant: 78.4, screening length: 5.74355 Bohr) occupying 0.624953 of unit cell:	Completed after 16 iterations at t[s]:    166.75
	FillingsUpdate:  mu: -0.168400000  nElectrons: 80.225841
	SubspaceRotationAdjust: set factor to 0.0368
ElecMinimize: Iter:  24  G: -431.682409610579157  |grad|_K:  3.555e-06  alpha:  5.065e-01  linmin: -1.237e-05  t[s]:    168.06
	Linear fluid (dielectric constant: 78.4, screening length: 5.74355 Bohr) occupying 0.623607 of unit cell:	Completed after 20 iterations at t[s]:    169.72
	Linear fluid (dielectric constant: 78.4, screening length: 5.74355 Bohr) occupying 0.624433 of unit cell:	Completed after 17 iterations at t[s]:    171.24
	FillingsUpdate:  mu: -0.168400000  nElectrons: 80.222612
	SubspaceRotationAdjust: set factor to 0.0321
ElecMinimize: Iter:  25  G: -431.682420156958585  |grad|_K:  3.204e-06  alpha:  1.995e-01  linmin:  8.553e-05  t[s]:    172.56
	Linear fluid (dielectric constant: 78.4, screening length: 5.74355 Bohr) occupying 0.624347 of unit cell:	Completed after 11 iterations at t[s]:    173.95
	Linear fluid (dielectric constant: 78.4, screening length: 5.74355 Bohr) occupying 0.624254 of unit cell:	Completed after 12 iterations at t[s]:    175.36
	FillingsUpdate:  mu: -0.168400000  nElectrons: 80.221519
	SubspaceRotationAdjust: set factor to 0.0466
ElecMinimize: Iter:  26  G: -431.682437956679735  |grad|_K:  2.839e-06  alpha:  4.139e-01  linmin:  4.674e-06  t[s]:    176.62
	Linear fluid (dielectric constant: 78.4, screening length: 5.74355 Bohr) occupying 0.624631 of unit cell:	Completed after 17 iterations at t[s]:    178.25
	Linear fluid (dielectric constant: 78.4, screening length: 5.74355 Bohr) occupying 0.624501 of unit cell:	Completed after 14 iterations at t[s]:    179.75
	FillingsUpdate:  mu: -0.168400000  nElectrons: 80.223010
	SubspaceRotationAdjust: set factor to 0.0408
ElecMinimize: Iter:  27  G: -431.682447097658496  |grad|_K:  3.211e-06  alpha:  2.701e-01  linmin: -1.149e-05  t[s]:    181.10
	Linear fluid (dielectric constant: 78.4, screening length: 5.74355 Bohr) occupying 0.624118 of unit cell:	Completed after 17 iterations at t[s]:    182.73
	Linear fluid (dielectric constant: 78.4, screening length: 5.74355 Bohr) occupying 0.624118 of unit cell:	Completed after 0 iterations at t[s]:    183.77
	FillingsUpdate:  mu: -0.168400000  nElectrons: 80.220491
	SubspaceRotationAdjust: set factor to 0.0525
ElecMinimize: Iter:  28  G: -431.682458809078128  |grad|_K:  2.188e-06  alpha:  2.701e-01  linmin: -8.336e-06  t[s]:    185.16
	Linear fluid (dielectric constant: 78.4, screening length: 5.74355 Bohr) occupying 0.623979 of unit cell:	Completed after 15 iterations at t[s]:    186.76
	Linear fluid (dielectric constant: 78.4, screening length: 5.74355 Bohr) occupying 0.623854 of unit cell:	Completed after 14 iterations at t[s]:    188.35
	FillingsUpdate:  mu: -0.168400000  nElectrons: 80.218669
	SubspaceRotationAdjust: set factor to 0.047
ElecMinimize: Iter:  29  G: -431.682469090179950  |grad|_K:  2.415e-06  alpha:  5.111e-01  linmin:  2.218e-05  t[s]:    189.69
	Linear fluid (dielectric constant: 78.4, screening length: 5.74355 Bohr) occupying 0.624373 of unit cell:	Completed after 16 iterations at t[s]:    191.31
	Linear fluid (dielectric constant: 78.4, screening length: 5.74355 Bohr) occupying 0.624042 of unit cell:	Completed after 15 iterations at t[s]:    192.85
	FillingsUpdate:  mu: -0.168400000  nElectrons: 80.219710
	SubspaceRotationAdjust: set factor to 0.041
ElecMinimize: Iter:  30  G: -431.682473574017479  |grad|_K:  2.258e-06  alpha:  1.833e-01  linmin:  4.244e-05  t[s]:    194.19
	Linear fluid (dielectric constant: 78.4, screening length: 5.74355 Bohr) occupying 0.623872 of unit cell:	Completed after 14 iterations at t[s]:    195.78
	Linear fluid (dielectric constant: 78.4, screening length: 5.74355 Bohr) occupying 0.623771 of unit cell:	Completed after 14 iterations at t[s]:    197.27
	FillingsUpdate:  mu: -0.168400000  nElectrons: 80.217885
	SubspaceRotationAdjust: set factor to 0.0563
ElecMinimize: Iter:  31  G: -431.682479785214468  |grad|_K:  1.532e-06  alpha:  2.904e-01  linmin:  4.015e-05  t[s]:    198.61
	Linear fluid (dielectric constant: 78.4, screening length: 5.74355 Bohr) occupying 0.623548 of unit cell:	Completed after 15 iterations at t[s]:    200.19
	Linear fluid (dielectric constant: 78.4, screening length: 5.74355 Bohr) occupying 0.623493 of unit cell:	Completed after 12 iterations at t[s]:    201.58
	FillingsUpdate:  mu: -0.168400000  nElectrons: 80.216099
	SubspaceRotationAdjust: set factor to 0.0423
ElecMinimize: Iter:  32  G: -431.682483340511169  |grad|_K:  1.848e-06  alpha:  3.610e-01  linmin:  2.468e-05  t[s]:    202.93
	Linear fluid (dielectric constant: 78.4, screening length: 5.74355 Bohr) occupying 0.623758 of unit cell:	Completed after 15 iterations at t[s]:    204.53
	Linear fluid (dielectric constant: 78.4, screening length: 5.74355 Bohr) occupying 0.623591 of unit cell:	Completed after 14 iterations at t[s]:    206.07
	FillingsUpdate:  mu: -0.168400000  nElectrons: 80.216618
	SubspaceRotationAdjust: set factor to 0.0359
ElecMinimize: Iter:  33  G: -431.682485220379533  |grad|_K:  1.097e-06  alpha:  1.318e-01  linmin:  7.985e-05  t[s]:    207.39
	Linear fluid (dielectric constant: 78.4, screening length: 5.74355 Bohr) occupying 0.623568 of unit cell:	Completed after 7 iterations at t[s]:    208.68
	Linear fluid (dielectric constant: 78.4, screening length: 5.74355 Bohr) occupying 0.623523 of unit cell:	Completed after 12 iterations at t[s]:    210.14
	FillingsUpdate:  mu: -0.168400000  nElectrons: 80.216131
	SubspaceRotationAdjust: set factor to 0.0401
ElecMinimize: Iter:  34  G: -431.682487212101478  |grad|_K:  9.355e-07  alpha:  3.944e-01  linmin:  2.602e-05  t[s]:    211.48
	Linear fluid (dielectric constant: 78.4, screening length: 5.74355 Bohr) occupying 0.623240 of unit cell:	Completed after 15 iterations at t[s]:    213.12
	Linear fluid (dielectric constant: 78.4, screening length: 5.74355 Bohr) occupying 0.623376 of unit cell:	Completed after 14 iterations at t[s]:    214.59
	FillingsUpdate:  mu: -0.168400000  nElectrons: 80.215210
	SubspaceRotationAdjust: set factor to 0.0376
ElecMinimize: Iter:  35  G: -431.682487972688762  |grad|_K:  8.059e-07  alpha:  2.063e-01  linmin:  1.755e-07  t[s]:    215.95
	Linear fluid (dielectric constant: 78.4, screening length: 5.74355 Bohr) occupying 0.623366 of unit cell:	Completed after 11 iterations at t[s]:    217.39
	Linear fluid (dielectric constant: 78.4, screening length: 5.74355 Bohr) occupying 0.623360 of unit cell:	Completed after 11 iterations at t[s]:    219.12
	FillingsUpdate:  mu: -0.168400000  nElectrons: 80.215050
	SubspaceRotationAdjust: set factor to 0.0442
ElecMinimize: Iter:  36  G: -431.682488913273346  |grad|_K:  6.362e-07  alpha:  3.446e-01  linmin:  1.241e-05  t[s]:    220.77
	Linear fluid (dielectric constant: 78.4, screening length: 5.74355 Bohr) occupying 0.623394 of unit cell:	Completed after 13 iterations at t[s]:    222.30
	Linear fluid (dielectric constant: 78.4, screening length: 5.74355 Bohr) occupying 0.623401 of unit cell:	Completed after 10 iterations at t[s]:    223.75
	FillingsUpdate:  mu: -0.168400000  nElectrons: 80.215220
	SubspaceRotationAdjust: set factor to 0.0309
ElecMinimize: Iter:  37  G: -431.682489623674883  |grad|_K:  8.785e-07  alpha:  4.176e-01  linmin: -3.570e-05  t[s]:    225.20
	Linear fluid (dielectric constant: 78.4, screening length: 5.74355 Bohr) occupying 0.623177 of unit cell:	Completed after 14 iterations at t[s]:    226.74
	Linear fluid (dielectric constant: 78.4, screening length: 5.74355 Bohr) occupying 0.623279 of unit cell:	Completed after 14 iterations at t[s]:    228.27
	FillingsUpdate:  mu: -0.168400000  nElectrons: 80.214393
	SubspaceRotationAdjust: set factor to 0.0352
ElecMinimize: Iter:  38  G: -431.682490365530555  |grad|_K:  7.292e-07  alpha:  2.281e-01  linmin:  1.423e-06  t[s]:    229.81
	Linear fluid (dielectric constant: 78.4, screening length: 5.74355 Bohr) occupying 0.623247 of unit cell:	Completed after 11 iterations at t[s]:    231.37
	Linear fluid (dielectric constant: 78.4, screening length: 5.74355 Bohr) occupying 0.623192 of unit cell:	Completed after 12 iterations at t[s]:    232.94
	FillingsUpdate:  mu: -0.168400000  nElectrons: 80.213639
	SubspaceRotationAdjust: set factor to 0.0427
ElecMinimize: Iter:  39  G: -431.682491763447899  |grad|_K:  1.019e-06  alpha:  6.258e-01  linmin:  7.898e-06  t[s]:    234.57
	Linear fluid (dielectric constant: 78.4, screening length: 5.74355 Bohr) occupying 0.623454 of unit cell:	Completed after 15 iterations at t[s]:    236.43
	Linear fluid (dielectric constant: 78.4, screening length: 5.74355 Bohr) occupying 0.623307 of unit cell:	Completed after 14 iterations at t[s]:    237.99
	FillingsUpdate:  mu: -0.168400000  nElectrons: 80.214094
	SubspaceRotationAdjust: set factor to 0.0373
ElecMinimize: Iter:  40  G: -431.682492950425853  |grad|_K:  1.168e-06  alpha:  2.731e-01  linmin:  1.333e-05  t[s]:    239.39
	Linear fluid (dielectric constant: 78.4, screening length: 5.74355 Bohr) occupying 0.623270 of unit cell:	Completed after 12 iterations at t[s]:    241.23
	Linear fluid (dielectric constant: 78.4, screening length: 5.74355 Bohr) occupying 0.623242 of unit cell:	Completed after 11 iterations at t[s]:    242.72
	FillingsUpdate:  mu: -0.168400000  nElectrons: 80.213139
	SubspaceRotationAdjust: set factor to 0.0436
ElecMinimize: Iter:  41  G: -431.682495684309288  |grad|_K:  1.101e-06  alpha:  4.776e-01  linmin:  3.053e-06  t[s]:    244.15
	Linear fluid (dielectric constant: 78.4, screening length: 5.74355 Bohr) occupying 0.623125 of unit cell:	Completed after 14 iterations at t[s]:    245.83
	Linear fluid (dielectric constant: 78.4, screening length: 5.74355 Bohr) occupying 0.623135 of unit cell:	Completed after 8 iterations at t[s]:    247.16
	FillingsUpdate:  mu: -0.168400000  nElectrons: 80.212009
	SubspaceRotationAdjust: set factor to 0.0411
ElecMinimize: Iter:  42  G: -431.682497898531722  |grad|_K:  1.374e-06  alpha:  4.343e-01  linmin:  1.611e-05  t[s]:    248.53
	Linear fluid (dielectric constant: 78.4, screening length: 5.74355 Bohr) occupying 0.623518 of unit cell:	Completed after 15 iterations at t[s]:    250.21
	Linear fluid (dielectric constant: 78.4, screening length: 5.74355 Bohr) occupying 0.623305 of unit cell:	Completed after 14 iterations at t[s]:    251.83
	FillingsUpdate:  mu: -0.168400000  nElectrons: 80.212654
	SubspaceRotationAdjust: set factor to 0.0307
ElecMinimize: Iter:  43  G: -431.682499405538806  |grad|_K:  9.540e-07  alpha:  1.913e-01  linmin:  2.595e-05  t[s]:    253.20
	Linear fluid (dielectric constant: 78.4, screening length: 5.74355 Bohr) occupying 0.623318 of unit cell:	Completed after 6 iterations at t[s]:    254.56
	Linear fluid (dielectric constant: 78.4, screening length: 5.74355 Bohr) occupying 0.623332 of unit cell:	Completed after 8 iterations at t[s]:    255.96
	FillingsUpdate:  mu: -0.168400000  nElectrons: 80.212452
	SubspaceRotationAdjust: set factor to 0.0387
ElecMinimize: Iter:  44  G: -431.682500886949072  |grad|_K:  6.715e-07  alpha:  3.881e-01  linmin:  4.963e-06  t[s]:    257.34
	Linear fluid (dielectric constant: 78.4, screening length: 5.74355 Bohr) occupying 0.623270 of unit cell:	Completed after 14 iterations at t[s]:    258.87
	Linear fluid (dielectric constant: 78.4, screening length: 5.74355 Bohr) occupying 0.623281 of unit cell:	Completed after 11 iterations at t[s]:    260.27
	FillingsUpdate:  mu: -0.168400000  nElectrons: 80.211993
	SubspaceRotationAdjust: set factor to 0.0362
ElecMinimize: Iter:  45  G: -431.682501497405951  |grad|_K:  6.068e-07  alpha:  3.218e-01  linmin:  9.142e-05  t[s]:    261.57
	Linear fluid (dielectric constant: 78.4, screening length: 5.74355 Bohr) occupying 0.623383 of unit cell:	Completed after 14 iterations at t[s]:    263.16
	Linear fluid (dielectric constant: 78.4, screening length: 5.74355 Bohr) occupying 0.623351 of unit cell:	Completed after 11 iterations at t[s]:    264.52
	FillingsUpdate:  mu: -0.168400000  nElectrons: 80.212322
	SubspaceRotationAdjust: set factor to 0.0358
ElecMinimize: Iter:  46  G: -431.682501837896211  |grad|_K:  4.069e-07  alpha:  2.211e-01  linmin: -1.810e-05  t[s]:    265.86
	Linear fluid (dielectric constant: 78.4, screening length: 5.74355 Bohr) occupying 0.623350 of unit cell:	Completed after 6 iterations at t[s]:    267.13
	Linear fluid (dielectric constant: 78.4, screening length: 5.74355 Bohr) occupying 0.623349 of unit cell:	Completed after 7 iterations at t[s]:    268.40
	FillingsUpdate:  mu: -0.168400000  nElectrons: 80.212241
	SubspaceRotationAdjust: set factor to 0.0471
ElecMinimize: Iter:  47  G: -431.682502123513132  |grad|_K:  3.066e-07  alpha:  4.107e-01  linmin:  2.714e-05  t[s]:    269.72
	Linear fluid (dielectric constant: 78.4, screening length: 5.74355 Bohr) occupying 0.623335 of unit cell:	Completed after 11 iterations at t[s]:    271.15
	Linear fluid (dielectric constant: 78.4, screening length: 5.74355 Bohr) occupying 0.623333 of unit cell:	Completed after 2 iterations at t[s]:    272.25
	FillingsUpdate:  mu: -0.168400000  nElectrons: 80.212111
	SubspaceRotationAdjust: set factor to 0.0402
ElecMinimize: Iter:  48  G: -431.682502306976289  |grad|_K:  3.393e-07  alpha:  4.649e-01  linmin: -9.329e-05  t[s]:    273.59
	Linear fluid (dielectric constant: 78.4, screening length: 5.74355 Bohr) occupying 0.623427 of unit cell:	Completed after 14 iterations at t[s]:    275.07
	Linear fluid (dielectric constant: 78.4, screening length: 5.74355 Bohr) occupying 0.623381 of unit cell:	Completed after 13 iterations at t[s]:    276.55
	FillingsUpdate:  mu: -0.168400000  nElectrons: 80.212374
	SubspaceRotationAdjust: set factor to 0.0391
ElecMinimize: Iter:  49  G: -431.682502424195093  |grad|_K:  3.169e-07  alpha:  2.360e-01  linmin:  9.594e-06  t[s]:    277.85
	Linear fluid (dielectric constant: 78.4, screening length: 5.74355 Bohr) occupying 0.623375 of unit cell:	Completed after 8 iterations at t[s]:    279.15
	Linear fluid (dielectric constant: 78.4, screening length: 5.74355 Bohr) occupying 0.623371 of unit cell:	Completed after 8 iterations at t[s]:    280.46
	FillingsUpdate:  mu: -0.168400000  nElectrons: 80.212296
	SubspaceRotationAdjust: set factor to 0.0488
ElecMinimize: Iter:  50  G: -431.682502586323551  |grad|_K:  2.692e-07  alpha:  3.885e-01  linmin:  1.127e-04  t[s]:    281.77
	Linear fluid (dielectric constant: 78.4, screening length: 5.74355 Bohr) occupying 0.623362 of unit cell:	Completed after 10 iterations at t[s]:    283.11
	Linear fluid (dielectric constant: 78.4, screening length: 5.74355 Bohr) occupying 0.623360 of unit cell:	Completed after 3 iterations at t[s]:    284.22
	FillingsUpdate:  mu: -0.168400000  nElectrons: 80.212221
	SubspaceRotationAdjust: set factor to 0.0541
ElecMinimize: Iter:  51  G: -431.682502730771887  |grad|_K:  2.920e-07  alpha:  4.824e-01  linmin: -3.161e-05  t[s]:    285.52
	Linear fluid (dielectric constant: 78.4, screening length: 5.74355 Bohr) occupying 0.623452 of unit cell:	Completed after 14 iterations at t[s]:    287.03
	Linear fluid (dielectric constant: 78.4, screening length: 5.74355 Bohr) occupying 0.623402 of unit cell:	Completed after 14 iterations at t[s]:    288.54
	FillingsUpdate:  mu: -0.168400000  nElectrons: 80.212467
	SubspaceRotationAdjust: set factor to 0.0468
ElecMinimize: Iter:  52  G: -431.682502813393626  |grad|_K:  2.902e-07  alpha:  2.219e-01  linmin: -1.449e-05  t[s]:    289.83
	Linear fluid (dielectric constant: 78.4, screening length: 5.74355 Bohr) occupying 0.623393 of unit cell:	Completed after 11 iterations at t[s]:    291.20
	Linear fluid (dielectric constant: 78.4, screening length: 5.74355 Bohr) occupying 0.623389 of unit cell:	Completed after 7 iterations at t[s]:    292.42
	FillingsUpdate:  mu: -0.168400000  nElectrons: 80.212386
	SubspaceRotationAdjust: set factor to 0.0546
ElecMinimize: Iter:  53  G: -431.682502924140579  |grad|_K:  2.238e-07  alpha:  3.131e-01  linmin:  2.396e-05  t[s]:    293.68
	Linear fluid (dielectric constant: 78.4, screening length: 5.74355 Bohr) occupying 0.623399 of unit cell:	Completed after 2 iterations at t[s]:    294.76
	Linear fluid (dielectric constant: 78.4, screening length: 5.74355 Bohr) occupying 0.623404 of unit cell:	Completed after 2 iterations at t[s]:    295.85
	FillingsUpdate:  mu: -0.168400000  nElectrons: 80.212479
	SubspaceRotationAdjust: set factor to 0.0633
ElecMinimize: Iter:  54  G: -431.682503025658207  |grad|_K:  2.130e-07  alpha:  4.852e-01  linmin:  3.320e-05  t[s]:    297.16
	Linear fluid (dielectric constant: 78.4, screening length: 5.74355 Bohr) occupying 0.623439 of unit cell:	Completed after 11 iterations at t[s]:    298.54
	Linear fluid (dielectric constant: 78.4, screening length: 5.74355 Bohr) occupying 0.623437 of unit cell:	Completed after 0 iterations at t[s]:    299.52
	FillingsUpdate:  mu: -0.168400000  nElectrons: 80.212681
	SubspaceRotationAdjust: set factor to 0.0455
ElecMinimize: Iter:  55  G: -431.682503111426229  |grad|_K:  3.084e-07  alpha:  4.522e-01  linmin:  5.441e-05  t[s]:    300.82
	Linear fluid (dielectric constant: 78.4, screening length: 5.74355 Bohr) occupying 0.623352 of unit cell:	Completed after 13 iterations at t[s]:    302.29
	Linear fluid (dielectric constant: 78.4, screening length: 5.74355 Bohr) occupying 0.623412 of unit cell:	Completed after 14 iterations at t[s]:    303.78
	FillingsUpdate:  mu: -0.168400000  nElectrons: 80.212542
	SubspaceRotationAdjust: set factor to 0.0402
ElecMinimize: Iter:  56  G: -431.682503160774843  |grad|_K:  2.394e-07  alpha:  1.308e-01  linmin:  9.254e-05  t[s]:    305.06
	Linear fluid (dielectric constant: 78.4, screening length: 5.74355 Bohr) occupying 0.623413 of unit cell:	Completed after 2 iterations at t[s]:    306.14
ElecMinimize: 	Predicted alpha/alphaT>3.000000, increasing alphaT to 3.924009e-01.
	Linear fluid (dielectric constant: 78.4, screening length: 5.74355 Bohr) occupying 0.623415 of unit cell:	Completed after 2 iterations at t[s]:    307.21
	Linear fluid (dielectric constant: 78.4, screening length: 5.74355 Bohr) occupying 0.623416 of unit cell:	Completed after 2 iterations at t[s]:    308.39
	FillingsUpdate:  mu: -0.168400000  nElectrons: 80.212584
	SubspaceRotationAdjust: set factor to 0.0554
ElecMinimize: Iter:  57  G: -431.682503272270083  |grad|_K:  2.571e-07  alpha:  4.700e-01  linmin:  9.148e-06  t[s]:    309.70
	Linear fluid (dielectric constant: 78.4, screening length: 5.74355 Bohr) occupying 0.623483 of unit cell:	Completed after 14 iterations at t[s]:    311.17
	Linear fluid (dielectric constant: 78.4, screening length: 5.74355 Bohr) occupying 0.623453 of unit cell:	Completed after 12 iterations at t[s]:    312.55
	FillingsUpdate:  mu: -0.168400000  nElectrons: 80.212818
	SubspaceRotationAdjust: set factor to 0.0483
ElecMinimize: Iter:  58  G: -431.682503345011639  |grad|_K:  2.962e-07  alpha:  2.580e-01  linmin:  2.100e-05  t[s]:    313.81
	Linear fluid (dielectric constant: 78.4, screening length: 5.74355 Bohr) occupying 0.623431 of unit cell:	Completed after 11 iterations at t[s]:    315.24
	Linear fluid (dielectric constant: 78.4, screening length: 5.74355 Bohr) occupying 0.623430 of unit cell:	Completed after 0 iterations at t[s]:    316.35
	FillingsUpdate:  mu: -0.168400000  nElectrons: 80.212704
	SubspaceRotationAdjust: set factor to 0.0451
ElecMinimize: Iter:  59  G: -431.682503444297481  |grad|_K:  2.202e-07  alpha:  2.700e-01  linmin: -5.897e-05  t[s]:    317.75
	Linear fluid (dielectric constant: 78.4, screening length: 5.74355 Bohr) occupying 0.623429 of unit cell:	Completed after 2 iterations at t[s]:    318.83
	Linear fluid (dielectric constant: 78.4, screening length: 5.74355 Bohr) occupying 0.623429 of unit cell:	Completed after 1 iterations at t[s]:    319.87
	FillingsUpdate:  mu: -0.168400000  nElectrons: 80.212724
	SubspaceRotationAdjust: set factor to 0.0509
ElecMinimize: Iter:  60  G: -431.682503535364219  |grad|_K:  1.783e-07  alpha:  4.394e-01  linmin: -2.047e-04  t[s]:    321.16
	Linear fluid (dielectric constant: 78.4, screening length: 5.74355 Bohr) occupying 0.623448 of unit cell:	Completed after 12 iterations at t[s]:    322.56
	Linear fluid (dielectric constant: 78.4, screening length: 5.74355 Bohr) occupying 0.623443 of unit cell:	Completed after 2 iterations at t[s]:    323.59
	FillingsUpdate:  mu: -0.168400000  nElectrons: 80.212825
	SubspaceRotationAdjust: set factor to 0.046
ElecMinimize: Iter:  61  G: -431.682503581583376  |grad|_K:  1.897e-07  alpha:  3.373e-01  linmin:  2.817e-04  t[s]:    324.87
	Linear fluid (dielectric constant: 78.4, screening length: 5.74355 Bohr) occupying 0.623395 of unit cell:	Completed after 12 iterations at t[s]:    326.26
	Linear fluid (dielectric constant: 78.4, screening length: 5.74355 Bohr) occupying 0.623423 of unit cell:	Completed after 11 iterations at t[s]:    327.59
	FillingsUpdate:  mu: -0.168400000  nElectrons: 80.212714
	SubspaceRotationAdjust: set factor to 0.0353
ElecMinimize: Iter:  62  G: -431.682503600955442  |grad|_K:  1.222e-07  alpha:  1.403e-01  linmin:  1.299e-04  t[s]:    328.87
	Linear fluid (dielectric constant: 78.4, screening length: 5.74355 Bohr) occupying 0.623422 of unit cell:	Completed after 1 iterations at t[s]:    329.95
	Linear fluid (dielectric constant: 78.4, screening length: 5.74355 Bohr) occupying 0.623420 of unit cell:	Completed after 2 iterations at t[s]:    331.00
	FillingsUpdate:  mu: -0.168400000  nElectrons: 80.212712
	SubspaceRotationAdjust: set factor to 0.0536
ElecMinimize: Iter:  63  G: -431.682503621707497  |grad|_K:  8.733e-08  alpha:  3.386e-01  linmin:  1.321e-04  t[s]:    332.30
	Linear fluid (dielectric constant: 78.4, screening length: 5.74355 Bohr) occupying 0.623430 of unit cell:	Completed after 11 iterations at t[s]:    333.68
	Linear fluid (dielectric constant: 78.4, screening length: 5.74355 Bohr) occupying 0.623427 of unit cell:	Completed after 3 iterations at t[s]:    334.76
	FillingsUpdate:  mu: -0.168400000  nElectrons: 80.212759
	SubspaceRotationAdjust: set factor to 0.0378
ElecMinimize: Iter:  64  G: -431.682503629100381  |grad|_K:  1.083e-07  alpha:  2.408e-01  linmin:  7.212e-05  t[s]:    336.10
	Linear fluid (dielectric constant: 78.4, screening length: 5.74355 Bohr) occupying 0.623411 of unit cell:	Completed after 8 iterations at t[s]:    337.38
	Linear fluid (dielectric constant: 78.4, screening length: 5.74355 Bohr) occupying 0.623416 of unit cell:	Completed after 4 iterations at t[s]:    338.53
	FillingsUpdate:  mu: -0.168400000  nElectrons: 80.212701
	SubspaceRotationAdjust: set factor to 0.0405
ElecMinimize: Iter:  65  G: -431.682503636847116  |grad|_K:  6.570e-08  alpha:  1.637e-01  linmin:  2.725e-04  t[s]:    339.76
ElecMinimize: Converged (|Delta G|<1.000000e-08 for 2 iters).
Setting wave functions to eigenvectors of Hamiltonian

# Ionic positions in lattice coordinates:
ion Pt   0.333333333333333  -0.333333333333333  -0.237676000000000 1
ion Pt  -0.333333333333333   0.333333333333333  -0.118838000000000 1
ion Pt   0.000000000000000   0.000000000000000   0.000000000000000 1
ion Pt   0.333333333333333  -0.333333333333333   0.118838000000000 1
ion Pt  -0.333333333333333   0.333333333333333   0.237676000000000 1


# Forces in Lattice coordinates:
force Pt  -0.000000000000000  -0.000000000000000  -0.061707870837887 1
force Pt  -0.000000000000000   0.000000000000000   0.090633886429408 1
force Pt   0.000000000000000   0.000000000000000   0.000000000000000 1
force Pt   0.000000000000000  -0.000000000000000  -0.090633886429408 1
force Pt   0.000000000000000  -0.000000000000000   0.061707870837887 1

# Energy components:
   A_diel =       -0.0755411348368159
   Eewald =     4702.9680318706023172
       EH =     5116.0377452904758684
     Eloc =   -10340.8577792530140869
      Enl =       -5.2750215774496780
      Exc =     -141.6160489912323612
 Exc_core =       81.2082896017070937
       KE =      142.4857488852628649
  MuShift =       -0.0098625805320393
-------------------------------------
     Etot =     -445.1344378890173630
       TS =        0.0558846612832403
-------------------------------------
        F =     -445.1903225503006070
      muN =      -13.5078189134534998
-------------------------------------
        G =     -431.6825036368471160

IonicMinimize: Iter:   0  G: -431.682503636847116  |grad|_K:  1.112e-03  t[s]:    340.28
IonicMinimize: None of the convergence criteria satisfied after 0 iterations.

#--- Lowdin population analysis ---
# oxidation-state Pt -0.097 +0.009 +0.013 +0.009 -0.097


Dumping 'common.fillings' ... done
Dumping 'common.wfns' ... done
Dumping 'common.fluidState' ... done
Dumping 'common.eigenvals' ... done
Dumping 'common.nbound' ... done
End date and time: Tue Mar 26 00:47:19 2019  (Duration: 0-0:05:40.51)
Done!
