--------------------------------------------------------------------------
Initialization of PSM library failed.

  Error: PSM is in the finalized state
--------------------------------------------------------------------------
--------------------------------------------------------------------------
The OpenFabrics (openib) BTL failed to initialize while trying to
allocate some locked memory.  This typically can indicate that the
memlock limits are set too low.  For most HPC installations, the
memlock limits should be set to "unlimited".  The failure occured
here:

  Local host:    node2009
  OMPI source:   btl_openib.c:753
  Function:      ompi_free_list_init_ex_new()
  Device:        qib0
  Memlock limit: 65536

You may need to consult with your system administrator to get this
problem fixed.  This FAQ entry on the Open MPI web site may also be
helpful:

    http://www.open-mpi.org/faq/?category=openfabrics#ib-locked-pages
--------------------------------------------------------------------------

*************** JDFTx 1.4.2 (git hash 74b6e54) ***************

Start date and time: Thu Apr 25 22:07:32 2019
Executable /home/jfm343/JDFTXDIR/build/jdftx with command-line: -i Solvated.in
Running on hosts (process indices):  node2009.physics.cornell.edu (0)
Divided in process groups (process indices):  0 (0)
Resource initialization completed at t[s]:      0.00
Run totals: 1 processes, 12 threads, 0 GPUs


Input parsed successfully to the following command list (including defaults):

basis kpoint-dependent
coords-type Lattice
core-overlap-check vector
coulomb-interaction Slab 001
coulomb-truncation-embed 0 0 0
davidson-band-ratio 1.1
dump End IonicPositions ElecDensity EigStats Ecomponents
dump-name 100_2-Solvated.$VAR
elec-cutoff 20 100
elec-eigen-algo Davidson
elec-ex-corr gga-PBEsol
elec-smearing Fermi 0.01
electronic-minimize  \
	dirUpdateScheme      FletcherReeves \
	linminMethod         DirUpdateRecommended \
	nIterations          200 \
	history              15 \
	knormThreshold       0 \
	energyDiffThreshold  1e-08 \
	nEnergyDiff          2 \
	alphaTstart          1 \
	alphaTmin            1e-10 \
	updateTestStepSize   yes \
	alphaTreduceFactor   0.1 \
	alphaTincreaseFactor 3 \
	nAlphaAdjustMax      3 \
	wolfeEnergy          0.0001 \
	wolfeGradient        0.9 \
	fdTest               no
exchange-regularization WignerSeitzTruncated
fluid NonlinearPCM 298.000000 1.013250
fluid-anion ClO4- 0.2 MeanFieldLJ \
	epsBulk 1 \
	pMol 0 \
	epsInf 1 \
	Pvap 0 \
	sigmaBulk 0 \
	Rvdw 4.55424 \
	Res 0 \
	tauNuc 343133 \
	omegaEl 0.55124 \
	gammaEl 0.257245
fluid-cation Na+ 0.2 MeanFieldLJ \
	epsBulk 1 \
	pMol 0 \
	epsInf 1 \
	Pvap 0 \
	sigmaBulk 0 \
	Rvdw 2.19208 \
	Res 0 \
	tauNuc 343133 \
	omegaEl 0.55124 \
	gammaEl 0.257245
fluid-ex-corr lda-TF lda-PZ
fluid-gummel-loop 10 1.000000e-05
fluid-minimize  \
	dirUpdateScheme      PolakRibiere \
	linminMethod         DirUpdateRecommended \
	nIterations          100 \
	history              15 \
	knormThreshold       1e-11 \
	energyDiffThreshold  0 \
	nEnergyDiff          2 \
	alphaTstart          1 \
	alphaTmin            1e-10 \
	updateTestStepSize   yes \
	alphaTreduceFactor   0.1 \
	alphaTincreaseFactor 3 \
	nAlphaAdjustMax      6 \
	wolfeEnergy          0.0001 \
	wolfeGradient        0.9 \
	fdTest               no
fluid-solvent H2O 55.338 ScalarEOS \
	epsBulk 78.4 \
	pMol 0.92466 \
	epsInf 1.77 \
	Pvap 1.06736e-10 \
	sigmaBulk 4.62e-05 \
	Rvdw 2.61727 \
	Res 1.42 \
	tauNuc 343133 \
	omegaEl 0.55124 \
	gammaEl 0.257245
forces-output-coords Positions
initial-state 100_2-Vacuum.$VAR
ion O   0.500000000000000   0.309282071371639   0.278431996196527 1
ion C   0.500000000000000   0.489274329966054   0.250132351186439 1
ion H   0.500000000000000   0.678518766885664   0.268216167027815 1
ion Pt   0.000000000000000   0.000000000000000  -0.166700000000000 0
ion Pt   0.500000000000000   0.500000000000000  -0.166700000000000 0
ion Pt   0.000000000000000   0.500000000000000  -0.166700000000000 0
ion Pt   0.500000000000000   0.000000000000000  -0.166700000000000 0
ion Pt   0.750000000000000   0.250000000000000  -0.083300000000000 0
ion Pt   0.250000000000000   0.750000000000000  -0.083300000000000 0
ion Pt   0.250000000000000   0.250000000000000  -0.083300000000000 0
ion Pt   0.750000000000000   0.750000000000000  -0.083300000000000 0
ion Pt   0.500000000000000   0.000380331890701   0.000099661196990 1
ion Pt   0.000000000000000   0.000609994571978  -0.001653273289343 1
ion Pt   0.000000000000000   0.500329435343742   0.000415104050205 1
ion Pt   0.500000000000000   0.499953157705678   0.000402570761222 1
ion Pt   0.750844663086632   0.250000565521683   0.082924439887454 1
ion Pt   0.249128144452612   0.752405963482662   0.082550247333421 1
ion Pt   0.249155336913368   0.250000565521683   0.082924439887454 1
ion Pt   0.750871855547388   0.752405963482662   0.082550247333421 1
ion Pt   0.000000000000000   0.000127724029408   0.163910100890613 1
ion Pt   0.000000000000000   0.501112096347719   0.162227133205064 1
ion Pt   0.500000000000000   0.002269045524536   0.162371102614103 1
ion Pt   0.500000000000000   0.506058311899725   0.167160787818358 1
ion-species GBRV/$ID_pbesol.uspp
ion-width Ecut
ionic-minimize  \
	dirUpdateScheme      L-BFGS \
	linminMethod         DirUpdateRecommended \
	nIterations          0 \
	history              15 \
	knormThreshold       0.0001 \
	energyDiffThreshold  1e-06 \
	nEnergyDiff          2 \
	alphaTstart          1 \
	alphaTmin            1e-10 \
	updateTestStepSize   yes \
	alphaTreduceFactor   0.1 \
	alphaTincreaseFactor 3 \
	nAlphaAdjustMax      3 \
	wolfeEnergy          0.0001 \
	wolfeGradient        0.9 \
	fdTest               no
kpoint   0.000000000000   0.000000000000   0.000000000000  1.00000000000000
kpoint-folding 4 4 1 
latt-move-scale 1 1 1
latt-scale 1 1 1 
lattice Tetragonal 10.4793 44.446
lattice-minimize  \
	dirUpdateScheme      L-BFGS \
	linminMethod         DirUpdateRecommended \
	nIterations          0 \
	history              15 \
	knormThreshold       0 \
	energyDiffThreshold  1e-06 \
	nEnergyDiff          2 \
	alphaTstart          1 \
	alphaTmin            1e-10 \
	updateTestStepSize   yes \
	alphaTreduceFactor   0.1 \
	alphaTincreaseFactor 3 \
	nAlphaAdjustMax      3 \
	wolfeEnergy          0.0001 \
	wolfeGradient        0.9 \
	fdTest               no
lcao-params -1 1e-06 0.01
pcm-variant GLSSA13
spintype no-spin
subspace-rotation-factor 1 yes
symmetries automatic
symmetry-threshold 0.0001
target-mu -0.1736 no




---------- Setting up symmetries ----------

Found 16 point-group symmetries of the bravais lattice
Found 2 space-group symmetries with basis
Applied RMS atom displacement 0 bohrs to make symmetries exact.

---------- Initializing the Grid ----------
R = 
[    10.4793          0          0  ]
[          0    10.4793          0  ]
[          0          0     44.446  ]
unit cell volume = 4880.87
G =
[   0.599581          0          0  ]
[          0   0.599581          0  ]
[          0          0   0.141367  ]
Minimum fftbox size, Smin = [  48  48  204  ]
Chosen fftbox size, S = [  48  48  210  ]

---------- Initializing tighter grid for wavefunction operations ----------
R = 
[    10.4793          0          0  ]
[          0    10.4793          0  ]
[          0          0     44.446  ]
unit cell volume = 4880.87
G =
[   0.599581          0          0  ]
[          0   0.599581          0  ]
[          0          0   0.141367  ]
Minimum fftbox size, Smin = [  44  44  180  ]
Chosen fftbox size, S = [  48  48  180  ]

---------- Exchange Correlation functional ----------
Initalized PBEsol GGA exchange.
Initalized PBEsol GGA correlation.

---------- Setting up pseudopotentials ----------
Width of ionic core gaussian charges (only for fluid interactions / plotting) set to 0.397384

Reading pseudopotential file '/home/jfm343/JDFTXDIR/build/pseudopotentials/GBRV/o_pbesol.uspp':
  Title: O.  Created by USPP 7.3.6 on 3-2-2014
  Reference state energy: -15.849885.  6 valence electrons in orbitals:
    |200>  occupation: 2  eigenvalue: -0.873214
    |210>  occupation: 4  eigenvalue: -0.330058
  lMax: 2  lLocal: 2  QijEcut: 6
  5 projectors sampled on a log grid with 511 points:
    l: 0  eig: -0.873214  rCut: 1.25
    l: 0  eig: 0.000000  rCut: 1.25
    l: 1  eig: -0.330058  rCut: 1.25
    l: 1  eig: 0.000000  rCut: 1.25
    l: 2  eig: 1.000000  rCut: 1.25
  Partial core density with radius 0.7
  Transforming core density to a uniform radial grid of dG=0.02 with 1265 points.
  Transforming local potential to a uniform radial grid of dG=0.02 with 1265 points.
  Transforming nonlocal projectors to a uniform radial grid of dG=0.02 with 432 points.
  Transforming density augmentations to a uniform radial grid of dG=0.02 with 1265 points.
  Transforming atomic orbitals to a uniform radial grid of dG=0.02 with 432 points.
  Core radius for overlap checks: 1.25 bohrs.

Reading pseudopotential file '/home/jfm343/JDFTXDIR/build/pseudopotentials/GBRV/c_pbesol.uspp':
  Title: C.  Created by USPP 7.3.6 on 3-2-2014
  Reference state energy: -5.383511.  4 valence electrons in orbitals:
    |200>  occupation: 2  eigenvalue: -0.501126
    |210>  occupation: 2  eigenvalue: -0.192448
  lMax: 1  lLocal: 2  QijEcut: 5
  4 projectors sampled on a log grid with 503 points:
    l: 0  eig: -0.501126  rCut: 1.3
    l: 0  eig: 0.000000  rCut: 1.3
    l: 1  eig: -0.192448  rCut: 1.3
    l: 1  eig: 0.000000  rCut: 1.3
  Partial core density with radius 1.1
  Transforming core density to a uniform radial grid of dG=0.02 with 1265 points.
  Transforming local potential to a uniform radial grid of dG=0.02 with 1265 points.
  Transforming nonlocal projectors to a uniform radial grid of dG=0.02 with 432 points.
  Transforming density augmentations to a uniform radial grid of dG=0.02 with 1265 points.
  Transforming atomic orbitals to a uniform radial grid of dG=0.02 with 432 points.
  Core radius for overlap checks: 1.30 bohrs.

Reading pseudopotential file '/home/jfm343/JDFTXDIR/build/pseudopotentials/GBRV/h_pbesol.uspp':
  Title: H.  Created by USPP 7.3.6 on 22-9-15
  Reference state energy: -0.449841.  1 valence electrons in orbitals:
    |100>  occupation: 1  eigenvalue: -0.232690
  lMax: 0  lLocal: 1  QijEcut: 6
  2 projectors sampled on a log grid with 395 points:
    l: 0  eig: -0.232690  rCut: 1.2
    l: 0  eig: 1.000000  rCut: 1.2
  Transforming local potential to a uniform radial grid of dG=0.02 with 1265 points.
  Transforming nonlocal projectors to a uniform radial grid of dG=0.02 with 432 points.
  Transforming density augmentations to a uniform radial grid of dG=0.02 with 1265 points.
  Transforming atomic orbitals to a uniform radial grid of dG=0.02 with 432 points.
  Core radius for overlap checks: 1.20 bohrs.

Reading pseudopotential file '/home/jfm343/JDFTXDIR/build/pseudopotentials/GBRV/pt_pbesol.uspp':
  Title: Pt.  Created by USPP 7.3.6 on 22-9-15
  Reference state energy: -104.899005.  16 valence electrons in orbitals:
    |510>  occupation: 6  eigenvalue: -2.158847
    |520>  occupation: 9.5  eigenvalue: -0.336311
    |600>  occupation: 0  eigenvalue: -0.320324
    |610>  occupation: 0  eigenvalue: -0.119800
  lMax: 2  lLocal: 3  QijEcut: 5.5
  6 projectors sampled on a log grid with 745 points:
    l: 0  eig: -0.320324  rCut: 2.45
    l: 0  eig: 1.500000  rCut: 2.45
    l: 1  eig: -2.158847  rCut: 1.6
    l: 1  eig: -0.119800  rCut: 1.6
    l: 2  eig: -0.500000  rCut: 1.6
    l: 2  eig: -0.336311  rCut: 1.6
  Partial core density with radius 1.1
  Transforming core density to a uniform radial grid of dG=0.02 with 1265 points.
  Transforming local potential to a uniform radial grid of dG=0.02 with 1265 points.
  Transforming nonlocal projectors to a uniform radial grid of dG=0.02 with 432 points.
  Transforming density augmentations to a uniform radial grid of dG=0.02 with 1265 points.
  Transforming atomic orbitals to a uniform radial grid of dG=0.02 with 432 points.
  Core radius for overlap checks: 2.45 bohrs.

Initialized 4 species with 23 total atoms.

Folded 1 k-points by 4x4x1 to 16 k-points.

---------- Setting up k-points, bands, fillings ----------
Adding inversion symmetry to k-mesh for non-inversion-symmetric unit cell.
Reduced to 9 k-points under symmetry. 
Computing the number of bands and number of electrons
Reading initial fillings from file 100_2-Vacuum.fillings.
nElectrons: 331.000000   nBands: 249   nStates: 9

----- Setting up reduced wavefunction bases (one per k-point) -----
average nbasis = 20861.812 , ideal nbasis = 20851.448

---------- Setting up coulomb interaction ----------
Fluid mode embedding: using embedded box, but periodic Coulomb kernel.
(Fluid response is responsible for (approximate) separation between periodic images.)
Setting up double-sized grid for truncated Coulomb potentials:
R = 
[    10.4793          0          0  ]
[          0    10.4793          0  ]
[          0          0     88.892  ]
unit cell volume = 9761.74
G =
[   0.599581          0          0  ]
[          0   0.599581          0  ]
[          0          0  0.0706834  ]
Chosen fftbox size, S = [  48  48  420  ]
Integer grid location selected as the embedding center:
   Grid: [  0  0  0  ]
   Lattice: [  0  0  0  ]
   Cartesian: [  0  0  0  ]
Constructing Wigner-Seitz cell: 6 faces (6 quadrilaterals, 0 hexagons)
Range-separation parameter for embedded mesh potentials due to point charges: 0.589462 bohrs.

---------- Setting up ewald sum ----------
Optimum gaussian width for ewald sums = 5.055893 bohr.
Real space sum over 845 unit cells with max indices [  6  6  2  ]
Reciprocal space sum over 6897 terms with max indices [  5  5  28  ]

---------- Allocating electronic variables ----------
Initializing wave functions:  reading from '100_2-Vacuum.wfns'
----- createFluidSolver() ----- (Fluid-side solver setup)
   Initializing fluid molecule 'H2O'
     Initializing site 'O'
       Electron density: proportional to exp(-r/0.36935)*erfc((r-0.51523)/0.36823) with norm 6.826
       Charge density: gaussian nuclear width 0.478731 with net site charge 0.826
       Polarizability: cuspless exponential with width 0.32 and norm 3.73
       Hard sphere radius: 2.57003 bohrs
       Positions in reference frame:
         [ +0.000000 +0.000000 +0.000000 ]
     Initializing site 'H'
       Electron density: proportional to exp(-r/0.34641)*erfc((r-0)/0.390882) with norm 0.587
       Charge density: gaussian nuclear width 0.377945 with net site charge -0.413
       Polarizability: cuspless exponential with width 0.39 and norm 3.3
       Positions in reference frame:
         [ +0.000000 -1.441945 +1.122523 ]
         [ +0.000000 +1.441945 +1.122523 ]
     Net charge: 0   dipole magnitude: 0.927204
     Initializing spherical shell mfKernel with radius 2.61727 Bohr
     deltaS corrections:
       site 'O': -7.54299
       site 'H': -6.83917
   Initializing fluid molecule 'Na+'
     Initializing site 'Na'
       Electron density: proportional to exp(-r/0.19682)*erfc((r-0.71491)/0.41314) with norm 8.1383
       Charge density: gaussian nuclear width 0.365347 with net site charge -1
       Hard sphere radius: 1.86327 bohrs
       Positions in reference frame:
         [ +0.000000 +0.000000 +0.000000 ]
     Net charge: -1   dipole magnitude: 0
     Initializing gaussian mfKernel with width: 1.55004 Bohr
     deltaS corrections:
       site 'Na': -22.3555
   Initializing fluid molecule 'ClO4-'
     Initializing site 'Cl'
       Electron density: proportional to exp(-r/0.48793)*erfc((r-0.93371)/0.45657) with norm 6.2308
       Charge density: gaussian nuclear width 0.55117 with net site charge -0.7692
       Hard sphere radius: 4.42196 bohrs
       Positions in reference frame:
         [ +0.000000 +0.000000 +0.000000 ]
     Initializing site 'O'
       Electron density: proportional to exp(-r/0.36013)*erfc((r-0.51636)/0.37371) with norm 6.4423
       Charge density: gaussian nuclear width 0.478731 with net site charge 0.4423
       Positions in reference frame:
         [ +1.705286 +1.705286 +1.705286 ]
         [ +1.705286 -1.705286 -1.705286 ]
         [ -1.705286 +1.705286 -1.705286 ]
         [ -1.705286 -1.705286 +1.705286 ]
     Net charge: 1   dipole magnitude: 0
     Initializing gaussian mfKernel with width: 3.22033 Bohr
     deltaS corrections:
       site 'Cl': -87.0374
       site 'O': 12.0842

Correction to mu due to finite nuclear width = -0.0336434
   Cavity determined by nc: 0.001 and sigma: 0.6
   Effective cavity tension: 9.5e-06 Eh/bohr^2 to account for cavitation and dispersion.
   Nonlinear dielectric with epsBulk = 78.4 and epsInf = 1.77 with density Nmol = 0.0049383 of dipoles pMol = 0.92466 at T = 298 K.
   Nonlinear ions with screening length = 12.843 bohrs and Z = 1 at T = 298 K.


---- Citations for features of the code used in this run ----

   Software package:
      R. Sundararaman, K. Letchworth-Weaver, K.A. Schwarz, D. Gunceler, Y. Ozhabes and T.A. Arias, 'JDFTx: software for joint density-functional theory', SoftwareX 6, 278 (2017)

   gga-PBEsol exchange-correlation functional:
      J.P. Perdew et al., Phys. Rev. Lett. 100, 136406 (2008)

   Pseudopotentials:
      KF Garrity, JW Bennett, KM Rabe and D Vanderbilt, Comput. Mater. Sci. 81, 446 (2014)

   Truncated Coulomb potentials:
      R. Sundararaman and T.A. Arias, Phys. Rev. B 87, 165122 (2013)

   Linear/nonlinear dielectric/ionic fluid model with effective cavity tension:
      D. Gunceler, K. Letchworth-Weaver, R. Sundararaman, K.A. Schwarz and T.A. Arias, Modelling Simul. Mater. Sci. Eng. 21, 074005 (2013)

   Total energy minimization with Auxiliary Hamiltonian:
      C. Freysoldt, S. Boeck, and J. Neugebauer, Phys. Rev. B 79, 241103(R) (2009)

   Grand-canonical (fixed-potential) DFT:
      R. Sundararaman, W. A. Goddard III and T. A. Arias, J. Chem. Phys. 146, 114104 (2017)

This list may not be complete. Please suggest additional citations or
report any other bugs at https://github.com/shankar1729/jdftx/issues

Initialization completed successfully at t[s]:     92.51

Shifting auxilliary hamiltonian by 0.033770 to set nElectrons=331.000000
Initializing state of NonlinearPCM using a similar LinearPCM: 	Linear fluid (dielectric constant: 78.4, screening length: 12.843 Bohr) occupying 0.726174 of unit cell:	Completed after 47 iterations at t[s]:    106.70

-------- Electron <-> Fluid self-consistency loop -----------

---------------------- Fluid Minimization # 1 -----------------------
FluidMinimize: Iter:   0  G: -0.000504599430196  |grad|_K:  3.741e-05  alpha:  1.000e+00
FluidMinimize: Iter:   1  G: -0.000504939543309  |grad|_K:  3.695e-05  alpha:  1.263e-04  linmin: -7.190e-02  cgtest:  9.999e-01  t[s]:    109.17
FluidMinimize: Encountered beta<0, resetting CG.
FluidMinimize: 	Predicted alpha/alphaT>3.000000, increasing alphaT to 3.789883e-04.
FluidMinimize: 	Predicted alpha/alphaT>3.000000, increasing alphaT to 1.136965e-03.
FluidMinimize: 	Predicted alpha/alphaT>3.000000, increasing alphaT to 3.410894e-03.
FluidMinimize: 	Predicted alpha/alphaT>3.000000, increasing alphaT to 1.023268e-02.
FluidMinimize: Iter:   2  G: -0.000518713148330  |grad|_K:  4.301e-05  alpha:  1.043e-02  linmin:  3.647e-05  cgtest: -4.217e-04  t[s]:    110.66
FluidMinimize: 	Predicted alpha/alphaT>3.000000, increasing alphaT to 3.127618e-02.
FluidMinimize: Iter:   3  G: -0.000663382215981  |grad|_K:  7.545e-05  alpha:  7.952e-02  linmin: -7.279e-03  cgtest:  1.907e-02  t[s]:    111.42
FluidMinimize: Iter:   4  G: -0.000744877826311  |grad|_K:  2.874e-05  alpha:  1.423e-02  linmin: -5.287e-03  cgtest: -2.000e-01  t[s]:    111.95
FluidMinimize: Iter:   5  G: -0.000778112650656  |grad|_K:  2.367e-05  alpha:  4.003e-02  linmin: -2.864e-03  cgtest: -6.157e-02  t[s]:    112.48
FluidMinimize: Iter:   6  G: -0.000782805647188  |grad|_K:  2.106e-05  alpha:  8.569e-03  linmin:  7.087e-04  cgtest: -3.606e-02  t[s]:    113.03
FluidMinimize: 	Predicted alpha/alphaT>3.000000, increasing alphaT to 2.570628e-02.
FluidMinimize: Iter:   7  G: -0.000805675680904  |grad|_K:  2.746e-05  alpha:  5.342e-02  linmin: -1.391e-03  cgtest:  9.588e-02  t[s]:    113.79
FluidMinimize: Iter:   8  G: -0.000818524989260  |grad|_K:  2.577e-05  alpha:  1.750e-02  linmin:  1.329e-04  cgtest: -3.258e-02  t[s]:    114.31
FluidMinimize: Iter:   9  G: -0.000829997139200  |grad|_K:  3.816e-05  alpha:  1.787e-02  linmin: -7.774e-04  cgtest:  3.604e-03  t[s]:    114.83
FluidMinimize: Iter:  10  G: -0.000863915378193  |grad|_K:  1.481e-05  alpha:  2.374e-02  linmin: -5.503e-03  cgtest: -9.261e-02  t[s]:    115.35
FluidMinimize: Iter:  11  G: -0.000870747226848  |grad|_K:  2.701e-05  alpha:  3.118e-02  linmin: -1.052e-04  cgtest: -2.685e-02  t[s]:    115.88
FluidMinimize: Iter:  12  G: -0.000884377881881  |grad|_K:  3.422e-05  alpha:  1.951e-02  linmin:  2.452e-04  cgtest:  2.682e-02  t[s]:    116.42
FluidMinimize: Iter:  13  G: -0.000903916122150  |grad|_K:  1.144e-05  alpha:  1.731e-02  linmin: -1.580e-03  cgtest: -2.255e-02  t[s]:    116.95
FluidMinimize: Iter:  14  G: -0.000907983627587  |grad|_K:  2.486e-05  alpha:  3.182e-02  linmin: -3.178e-05  cgtest: -7.896e-03  t[s]:    117.48
FluidMinimize: Iter:  15  G: -0.000924023755434  |grad|_K:  2.584e-05  alpha:  2.690e-02  linmin: -1.014e-03  cgtest:  2.842e-02  t[s]:    118.01
FluidMinimize: Iter:  16  G: -0.000934062201228  |grad|_K:  1.145e-05  alpha:  1.552e-02  linmin:  1.743e-04  cgtest: -3.097e-02  t[s]:    118.54
FluidMinimize: Iter:  17  G: -0.000935968848205  |grad|_K:  1.626e-05  alpha:  1.504e-02  linmin:  4.433e-07  cgtest:  5.925e-04  t[s]:    119.09
FluidMinimize: 	Predicted alpha/alphaT>3.000000, increasing alphaT to 4.512283e-02.
FluidMinimize: Iter:  18  G: -0.000947950873323  |grad|_K:  1.825e-05  alpha:  4.686e-02  linmin:  1.213e-04  cgtest:  1.376e-03  t[s]:    119.85
FluidMinimize: Iter:  19  G: -0.000953569184498  |grad|_K:  1.643e-05  alpha:  1.741e-02  linmin: -1.677e-04  cgtest:  1.546e-03  t[s]:    120.38
FluidMinimize: Iter:  20  G: -0.000956758129539  |grad|_K:  1.725e-05  alpha:  1.219e-02  linmin: -1.138e-06  cgtest: -3.903e-03  t[s]:    120.92
FluidMinimize: Converged (|Delta G|<1.000000e-05 for 2 iters).

Fluid minimization # 1 changed total free energy by -4.521587e-04 at t[s]:    121.21

-------------------- Electronic Minimization # 1 ---------------------
	FillingsUpdate:  mu: -0.173600000  nElectrons: 331.000000
ElecMinimize: Iter:   0  G: -1745.370404873935968  |grad|_K:  6.881e-05  alpha:  1.000e+00
ElecMinimize: 	Step increased G by 3.832932e-05, reducing alpha to 2.976709e-04.
	FillingsUpdate:  mu: -0.173600000  nElectrons: 331.005367
	SubspaceRotationAdjust: set factor to 0.501
ElecMinimize: Iter:   1  G: -1745.370523721780955  |grad|_K:  5.467e-05  alpha:  2.977e-04  linmin: -2.039e-01  t[s]:    912.58
	FillingsUpdate:  mu: -0.173600000  nElectrons: 331.026141
	SubspaceRotationAdjust: set factor to 0.281
ElecMinimize: Iter:   2  G: -1745.370728104319369  |grad|_K:  7.159e-06  alpha:  8.105e-04  linmin: -2.000e-04  t[s]:   1304.13
ElecMinimize: 	Predicted alpha/alphaT>3.000000, increasing alphaT to 2.431568e-03.
ElecMinimize: 	Predicted alpha/alphaT>3.000000, increasing alphaT to 7.294705e-03.
ElecMinimize: 	Predicted alpha/alphaT>3.000000, increasing alphaT to 2.188412e-02.
	FillingsUpdate:  mu: -0.173600000  nElectrons: 331.032242
	SubspaceRotationAdjust: set factor to 0.151
ElecMinimize: Iter:   3  G: -1745.370782170295570  |grad|_K:  8.435e-06  alpha:  2.239e-02  linmin: -5.644e-05  t[s]:   1881.62
	FillingsUpdate:  mu: -0.173600000  nElectrons: 331.027010
	SubspaceRotationAdjust: set factor to 0.0972
	SubspaceRotationAdjust: resetting CG because factor has changed by 0.0971599
ElecMinimize: 	State modified externally: resetting search direction.
ElecMinimize: Iter:   4  G: -1745.370810318324175  |grad|_K:  3.630e-06  alpha:  8.391e-03
ElecMinimize: 	Predicted alpha/alphaT>3.000000, increasing alphaT to 2.517231e-02.
ElecMinimize: 	Predicted alpha/alphaT>3.000000, increasing alphaT to 7.551693e-02.
	FillingsUpdate:  mu: -0.173600000  nElectrons: 331.034342
	SubspaceRotationAdjust: set factor to 0.0553
ElecMinimize: Iter:   5  G: -1745.370863491327100  |grad|_K:  4.973e-06  alpha:  8.581e-02  linmin: -2.457e-05  t[s]:   2997.70
	FillingsUpdate:  mu: -0.173600000  nElectrons: 331.028548
	SubspaceRotationAdjust: set factor to 0.0385
ElecMinimize: Iter:   6  G: -1745.370897281437465  |grad|_K:  2.485e-06  alpha:  2.901e-02  linmin: -3.594e-05  t[s]:   3390.85
ElecMinimize: 	Predicted alpha/alphaT>3.000000, increasing alphaT to 8.704270e-02.
ElecMinimize: 	Predicted alpha/alphaT>3.000000, increasing alphaT to 2.611281e-01.
	FillingsUpdate:  mu: -0.173600000  nElectrons: 331.029674
	SubspaceRotationAdjust: set factor to 0.0252
ElecMinimize: Iter:   7  G: -1745.371015836290326  |grad|_K:  2.788e-06  alpha:  4.080e-01  linmin:  3.131e-07  t[s]:   3963.03
	FillingsUpdate:  mu: -0.173600000  nElectrons: 331.035966
	SubspaceRotationAdjust: set factor to 0.0157
ElecMinimize: Iter:   8  G: -1745.371034907816238  |grad|_K:  1.528e-06  alpha:  5.230e-02  linmin:  3.444e-05  t[s]:   4348.30
ElecMinimize: 	Predicted alpha/alphaT>3.000000, increasing alphaT to 1.568857e-01.
	FillingsUpdate:  mu: -0.173600000  nElectrons: 331.038548
	SubspaceRotationAdjust: set factor to 0.00975
	SubspaceRotationAdjust: resetting CG because factor has changed by 0.100372
ElecMinimize: 	State modified externally: resetting search direction.
ElecMinimize: Iter:   9  G: -1745.371070124113885  |grad|_K:  1.422e-06  alpha:  3.213e-01
	FillingsUpdate:  mu: -0.173600000  nElectrons: 331.032988
	SubspaceRotationAdjust: set factor to 0.00661
ElecMinimize: Iter:  10  G: -1745.371087780809603  |grad|_K:  6.713e-07  alpha:  1.856e-01  linmin: -9.899e-06  t[s]:   5368.66
	FillingsUpdate:  mu: -0.173600000  nElectrons: 331.033855
	SubspaceRotationAdjust: set factor to 0.00793
ElecMinimize: Iter:  11  G: -1745.371097451686182  |grad|_K:  3.799e-07  alpha:  4.565e-01  linmin:  1.634e-05  t[s]:   5759.32
	FillingsUpdate:  mu: -0.173600000  nElectrons: 331.033494
	SubspaceRotationAdjust: set factor to 0.0104
ElecMinimize: Iter:  12  G: -1745.371102554702020  |grad|_K:  4.192e-07  alpha:  7.521e-01  linmin: -7.117e-06  t[s]:   6153.86
ElecMinimize: Converged (|Delta G|<1.000000e-05 for 2 iters).
Setting wave functions to eigenvectors of Hamiltonian

Electronic minimization # 1 changed total free energy by -6.976808e-04 at t[s]:   6170.85

---------------------- Fluid Minimization # 2 -----------------------
FluidMinimize: Iter:   0  G: -0.007142031075920  |grad|_K:  1.451e-04  alpha:  1.000e+00
FluidMinimize: Iter:   1  G: -0.007142031075920  |grad|_K:  1.451e-04  alpha:  2.244e-22  linmin: -1.326e-01  cgtest:  1.000e+00  t[s]:   6171.68
FluidMinimize: Encountered beta<0, resetting CG.
FluidMinimize: 	Step increased G by 5.204170e-18, reducing alpha to 2.244203e-23.
FluidMinimize: 	Step increased G by 5.204170e-18, reducing alpha to 2.244203e-24.
FluidMinimize: 	Step increased G by 5.204170e-18, reducing alpha to 2.244203e-25.
FluidMinimize: 	Step increased G by 5.204170e-18, reducing alpha to 2.244203e-26.
FluidMinimize: 	Step increased G by 5.204170e-18, reducing alpha to 2.244203e-27.
FluidMinimize: Iter:   2  G: -0.007142031075920  |grad|_K:  1.451e-04  alpha:  2.244e-27  linmin: -1.326e-01  cgtest:  1.000e+00  t[s]:   6173.56
FluidMinimize: Converged (|Delta G|<6.976808e-06 for 2 iters).

Fluid minimization # 2 changed total free energy by -6.938894e-18 at t[s]:   6173.86

-------------------- Electronic Minimization # 2 ---------------------
	FillingsUpdate:  mu: -0.173600000  nElectrons: 330.980951
ElecMinimize: Iter:   0  G: -1745.369040413427911  |grad|_K:  1.715e-05  alpha:  1.000e+00
	FillingsUpdate:  mu: -0.173600000  nElectrons: 331.041176
	SubspaceRotationAdjust: set factor to 0.00518
ElecMinimize: Iter:   1  G: -1745.370902741941563  |grad|_K:  2.641e-06  alpha:  1.359e-01  linmin:  8.844e-03  t[s]:   6732.83
	FillingsUpdate:  mu: -0.173600000  nElectrons: 331.040442
	SubspaceRotationAdjust: set factor to 0.0068
ElecMinimize: Iter:   2  G: -1745.371030198883545  |grad|_K:  1.204e-06  alpha:  3.919e-01  linmin:  9.676e-05  t[s]:   7123.59
	FillingsUpdate:  mu: -0.173600000  nElectrons: 331.041831
	SubspaceRotationAdjust: set factor to 0.00848
ElecMinimize: Iter:   3  G: -1745.371060293817663  |grad|_K:  7.572e-07  alpha:  4.415e-01  linmin: -1.263e-05  t[s]:   7513.94
	FillingsUpdate:  mu: -0.173600000  nElectrons: 331.041272
	SubspaceRotationAdjust: set factor to 0.0114
ElecMinimize: Iter:   4  G: -1745.371079057872748  |grad|_K:  7.214e-07  alpha:  6.960e-01  linmin: -6.551e-06  t[s]:   7905.84
	FillingsUpdate:  mu: -0.173600000  nElectrons: 331.040387
	SubspaceRotationAdjust: set factor to 0.0131
ElecMinimize: Iter:   5  G: -1745.371108041097614  |grad|_K:  9.877e-07  alpha:  1.184e+00  linmin: -1.140e-06  t[s]:   8298.23
	FillingsUpdate:  mu: -0.173600000  nElectrons: 331.044284
	SubspaceRotationAdjust: set factor to 0.0108
ElecMinimize: Iter:   6  G: -1745.371147440039977  |grad|_K:  1.536e-06  alpha:  8.597e-01  linmin: -4.948e-06  t[s]:   8686.92
	FillingsUpdate:  mu: -0.173600000  nElectrons: 331.037932
	SubspaceRotationAdjust: set factor to 0.00715
ElecMinimize: Iter:   7  G: -1745.371177263835534  |grad|_K:  1.295e-06  alpha:  2.674e-01  linmin: -1.077e-04  t[s]:   9071.83
	FillingsUpdate:  mu: -0.173600000  nElectrons: 331.038843
	SubspaceRotationAdjust: set factor to 0.00907
ElecMinimize: Iter:   8  G: -1745.371221211009470  |grad|_K:  1.043e-06  alpha:  5.544e-01  linmin: -1.397e-05  t[s]:   9459.72
	FillingsUpdate:  mu: -0.173600000  nElectrons: 331.041401
	SubspaceRotationAdjust: set factor to 0.00875
ElecMinimize: Iter:   9  G: -1745.371244736164272  |grad|_K:  8.597e-07  alpha:  4.602e-01  linmin: -9.875e-06  t[s]:   9850.76
	FillingsUpdate:  mu: -0.173600000  nElectrons: 331.038310
	SubspaceRotationAdjust: set factor to 0.00767
ElecMinimize: Iter:  10  G: -1745.371257255998898  |grad|_K:  6.506e-07  alpha:  3.602e-01  linmin:  7.131e-06  t[s]:  10237.33
	FillingsUpdate:  mu: -0.173600000  nElectrons: 331.039490
	SubspaceRotationAdjust: set factor to 0.00923
ElecMinimize: Iter:  11  G: -1745.371266669643774  |grad|_K:  5.345e-07  alpha:  4.731e-01  linmin: -5.105e-06  t[s]:  10625.67
	FillingsUpdate:  mu: -0.173600000  nElectrons: 331.039264
	SubspaceRotationAdjust: set factor to 0.0116
ElecMinimize: Iter:  12  G: -1745.371273637723789  |grad|_K:  5.174e-07  alpha:  5.187e-01  linmin:  1.942e-07  t[s]:  11014.92
	FillingsUpdate:  mu: -0.173600000  nElectrons: 331.037209
	SubspaceRotationAdjust: set factor to 0.011
ElecMinimize: Iter:  13  G: -1745.371280551633845  |grad|_K:  5.799e-07  alpha:  5.494e-01  linmin:  3.937e-06  t[s]:  11403.76
ElecMinimize: Converged (|Delta G|<6.976808e-06 for 2 iters).
Setting wave functions to eigenvectors of Hamiltonian

Electronic minimization # 2 changed total free energy by -1.779969e-04 at t[s]:  11421.29

---------------------- Fluid Minimization # 3 -----------------------
FluidMinimize: Iter:   0  G: -0.008402466957335  |grad|_K:  1.664e-04  alpha:  1.000e+00
FluidMinimize: 	Step increased G by 6.938894e-18, reducing alpha to 1.518635e-27.
FluidMinimize: 	Step increased G by 6.938894e-18, reducing alpha to 1.518635e-28.
FluidMinimize: 	Step increased G by 1.387779e-17, reducing alpha to 1.518635e-29.
FluidMinimize: 	Step increased G by 6.938894e-18, reducing alpha to 1.518635e-30.
FluidMinimize: 	Step increased G by 6.938894e-18, reducing alpha to 1.518635e-31.
FluidMinimize: 	Step increased G by 1.387779e-17, reducing alpha to 1.518635e-32.
FluidMinimize: 	Step failed to reduce G after 6 attempts. Quitting step.
FluidMinimize: 	Undoing step.
FluidMinimize: 	Step failed along negative gradient direction.
FluidMinimize: Probably at roundoff error limit. (Stopping)

Fluid minimization # 3 changed total free energy by 6.938894e-18 at t[s]:  11423.99

-------------------- Electronic Minimization # 3 ---------------------
	FillingsUpdate:  mu: -0.173600000  nElectrons: 331.815490
ElecMinimize: Iter:   0  G: -1745.045807642539557  |grad|_K:  2.319e-04  alpha:  1.000e+00
	FillingsUpdate:  mu: -0.173600000  nElectrons: 331.108517
	SubspaceRotationAdjust: set factor to 0.006
ElecMinimize: Iter:   1  G: -1745.363464114610451  |grad|_K:  2.525e-05  alpha:  1.132e-01  linmin: -2.243e-01  t[s]:  11979.00
	FillingsUpdate:  mu: -0.173600000  nElectrons: 331.016635
	SubspaceRotationAdjust: set factor to 0.00367
ElecMinimize: Iter:   2  G: -1745.367662307148521  |grad|_K:  7.770e-06  alpha:  1.272e-01  linmin:  6.751e-04  t[s]:  12369.92
	FillingsUpdate:  mu: -0.173600000  nElectrons: 331.005072
	SubspaceRotationAdjust: set factor to 0.00406
ElecMinimize: Iter:   3  G: -1745.368683499294093  |grad|_K:  4.042e-06  alpha:  3.603e-01  linmin: -2.453e-04  t[s]:  12763.14
	FillingsUpdate:  mu: -0.173600000  nElectrons: 331.017791
	SubspaceRotationAdjust: set factor to 0.00506
ElecMinimize: Iter:   4  G: -1745.369084484983659  |grad|_K:  3.211e-06  alpha:  5.217e-01  linmin: -1.977e-04  t[s]:  13150.48
	FillingsUpdate:  mu: -0.173600000  nElectrons: 331.024253
	SubspaceRotationAdjust: set factor to 0.00653
ElecMinimize: Iter:   5  G: -1745.369411186730076  |grad|_K:  3.263e-06  alpha:  6.735e-01  linmin: -2.836e-05  t[s]:  13538.11
	FillingsUpdate:  mu: -0.173600000  nElectrons: 331.019778
	SubspaceRotationAdjust: set factor to 0.00677
ElecMinimize: Iter:   6  G: -1745.369852373876256  |grad|_K:  4.245e-06  alpha:  8.815e-01  linmin:  1.386e-04  t[s]:  13925.15
	FillingsUpdate:  mu: -0.173600000  nElectrons: 331.030041
	SubspaceRotationAdjust: set factor to 0.00696
ElecMinimize: Iter:   7  G: -1745.370394171606222  |grad|_K:  4.051e-06  alpha:  6.416e-01  linmin: -3.053e-05  t[s]:  14313.74
	FillingsUpdate:  mu: -0.173600000  nElectrons: 331.031764
	SubspaceRotationAdjust: set factor to 0.00759
ElecMinimize: Iter:   8  G: -1745.370846604643702  |grad|_K:  3.204e-06  alpha:  5.862e-01  linmin:  2.140e-05  t[s]:  14703.80
	FillingsUpdate:  mu: -0.173600000  nElectrons: 331.030992
	SubspaceRotationAdjust: set factor to 0.00835
ElecMinimize: Iter:   9  G: -1745.371070808799459  |grad|_K:  2.257e-06  alpha:  4.647e-01  linmin:  2.299e-05  t[s]:  15097.65
	FillingsUpdate:  mu: -0.173600000  nElectrons: 331.037147
	SubspaceRotationAdjust: set factor to 0.00875
ElecMinimize: Iter:  10  G: -1745.371182873292810  |grad|_K:  1.686e-06  alpha:  4.679e-01  linmin: -5.217e-05  t[s]:  15489.31
	FillingsUpdate:  mu: -0.173600000  nElectrons: 331.034422
	SubspaceRotationAdjust: set factor to 0.00908
ElecMinimize: Iter:  11  G: -1745.371239296935073  |grad|_K:  1.194e-06  alpha:  4.222e-01  linmin:  2.715e-05  t[s]:  15878.25
	FillingsUpdate:  mu: -0.173600000  nElectrons: 331.036958
	SubspaceRotationAdjust: set factor to 0.00936
ElecMinimize: Iter:  12  G: -1745.371268872843757  |grad|_K:  8.557e-07  alpha:  4.412e-01  linmin: -1.457e-05  t[s]:  16270.33
	FillingsUpdate:  mu: -0.173600000  nElectrons: 331.035851
	SubspaceRotationAdjust: set factor to 0.00961
ElecMinimize: Iter:  13  G: -1745.371283996403690  |grad|_K:  5.857e-07  alpha:  4.392e-01  linmin:  8.027e-06  t[s]:  16661.43
	FillingsUpdate:  mu: -0.173600000  nElectrons: 331.036816
	SubspaceRotationAdjust: set factor to 0.01
ElecMinimize: Iter:  14  G: -1745.371291207013201  |grad|_K:  4.065e-07  alpha:  4.472e-01  linmin: -2.903e-06  t[s]:  17050.49
	FillingsUpdate:  mu: -0.173600000  nElectrons: 331.035865
	SubspaceRotationAdjust: set factor to 0.0104
ElecMinimize: Iter:  15  G: -1745.371294589744139  |grad|_K:  3.183e-07  alpha:  4.354e-01  linmin:  2.281e-07  t[s]:  17443.05
	FillingsUpdate:  mu: -0.173600000  nElectrons: 331.036726
	SubspaceRotationAdjust: set factor to 0.0108
ElecMinimize: Iter:  16  G: -1745.371296689166002  |grad|_K:  2.920e-07  alpha:  4.406e-01  linmin: -9.671e-06  t[s]:  17832.31
	FillingsUpdate:  mu: -0.173600000  nElectrons: 331.035751
	SubspaceRotationAdjust: set factor to 0.0111
ElecMinimize: Iter:  17  G: -1745.371298573650392  |grad|_K:  2.950e-07  alpha:  4.700e-01  linmin: -9.881e-07  t[s]:  18222.57
	FillingsUpdate:  mu: -0.173600000  nElectrons: 331.036457
	SubspaceRotationAdjust: set factor to 0.0113
ElecMinimize: Iter:  18  G: -1745.371300933079738  |grad|_K:  3.315e-07  alpha:  5.765e-01  linmin: -3.347e-06  t[s]:  18615.29
	FillingsUpdate:  mu: -0.173600000  nElectrons: 331.035216
	SubspaceRotationAdjust: set factor to 0.0106
ElecMinimize: Iter:  19  G: -1745.371304214541169  |grad|_K:  3.775e-07  alpha:  6.351e-01  linmin:  2.987e-06  t[s]:  19010.72
	FillingsUpdate:  mu: -0.173600000  nElectrons: 331.036209
	SubspaceRotationAdjust: set factor to 0.00884
ElecMinimize: Iter:  20  G: -1745.371307280552401  |grad|_K:  3.721e-07  alpha:  4.578e-01  linmin: -5.459e-08  t[s]:  19399.18
	FillingsUpdate:  mu: -0.173600000  nElectrons: 331.034972
	SubspaceRotationAdjust: set factor to 0.0074
ElecMinimize: Iter:  21  G: -1745.371310060916358  |grad|_K:  3.125e-07  alpha:  4.272e-01  linmin:  2.236e-06  t[s]:  19785.86
	FillingsUpdate:  mu: -0.173600000  nElectrons: 331.035372
	SubspaceRotationAdjust: set factor to 0.00798
ElecMinimize: Iter:  22  G: -1745.371312095540361  |grad|_K:  2.245e-07  alpha:  4.433e-01  linmin:  1.829e-06  t[s]:  20179.73
	FillingsUpdate:  mu: -0.173600000  nElectrons: 331.035494
	SubspaceRotationAdjust: set factor to 0.0098
ElecMinimize: Iter:  23  G: -1745.371313265882463  |grad|_K:  1.757e-07  alpha:  4.944e-01  linmin:  2.209e-05  t[s]:  20570.75
	FillingsUpdate:  mu: -0.173600000  nElectrons: 331.035068
	SubspaceRotationAdjust: set factor to 0.0107
ElecMinimize: Iter:  24  G: -1745.371313974077339  |grad|_K:  1.688e-07  alpha:  4.885e-01  linmin: -1.116e-05  t[s]:  20960.15
ElecMinimize: Converged (|Delta G|<1.779969e-06 for 2 iters).
Setting wave functions to eigenvectors of Hamiltonian

Electronic minimization # 3 changed total free energy by -3.342244e-05 at t[s]:  20978.42

---------------------- Fluid Minimization # 4 -----------------------
FluidMinimize: Iter:   0  G: -0.007895567647675  |grad|_K:  1.537e-04  alpha:  1.000e+00
FluidMinimize: Iter:   1  G: -0.007895567647675  |grad|_K:  1.537e-04  alpha:  4.521e-24  linmin: -1.321e-01  cgtest:  1.000e+00  t[s]:  20979.29
FluidMinimize: Encountered beta<0, resetting CG.
FluidMinimize: Iter:   2  G: -0.007895567647675  |grad|_K:  1.537e-04  alpha:  4.521e-24  linmin: -1.321e-01  cgtest:  1.000e+00  t[s]:  20979.86
FluidMinimize: Converged (|Delta G|<3.342244e-07 for 2 iters).

Fluid minimization # 4 changed total free energy by -1.734723e-18 at t[s]:  20980.16

-------------------- Electronic Minimization # 4 ---------------------
	FillingsUpdate:  mu: -0.173600000  nElectrons: 331.238617
ElecMinimize: Iter:   0  G: -1745.353695377699296  |grad|_K:  5.246e-05  alpha:  1.000e+00
	FillingsUpdate:  mu: -0.173600000  nElectrons: 331.060583
	SubspaceRotationAdjust: set factor to 0.0178
ElecMinimize: Iter:   1  G: -1745.370380018713604  |grad|_K:  5.643e-06  alpha:  1.255e-01  linmin: -4.038e-02  t[s]:  21536.66
	FillingsUpdate:  mu: -0.173600000  nElectrons: 331.037937
	SubspaceRotationAdjust: set factor to 0.0115
ElecMinimize: Iter:   2  G: -1745.370926177067986  |grad|_K:  3.913e-06  alpha:  3.560e-01  linmin:  1.971e-04  t[s]:  21925.86
	FillingsUpdate:  mu: -0.173600000  nElectrons: 331.047281
	SubspaceRotationAdjust: set factor to 0.00807
ElecMinimize: Iter:   3  G: -1745.371019040799865  |grad|_K:  2.208e-06  alpha:  1.292e-01  linmin:  1.409e-04  t[s]:  22317.81
ElecMinimize: 	Predicted alpha/alphaT>3.000000, increasing alphaT to 3.875609e-01.
	FillingsUpdate:  mu: -0.173600000  nElectrons: 331.044579
	SubspaceRotationAdjust: set factor to 0.0131
ElecMinimize: Iter:   4  G: -1745.371116963257236  |grad|_K:  1.607e-06  alpha:  4.277e-01  linmin:  1.242e-05  t[s]:  22800.43
	FillingsUpdate:  mu: -0.173600000  nElectrons: 331.037144
	SubspaceRotationAdjust: set factor to 0.00958
ElecMinimize: Iter:   5  G: -1745.371160028680151  |grad|_K:  1.644e-06  alpha:  3.546e-01  linmin:  2.822e-05  t[s]:  23192.21
	FillingsUpdate:  mu: -0.173600000  nElectrons: 331.041376
	SubspaceRotationAdjust: set factor to 0.00823
ElecMinimize: Iter:   6  G: -1745.371201586989173  |grad|_K:  1.323e-06  alpha:  3.273e-01  linmin: -3.799e-05  t[s]:  23580.21
	FillingsUpdate:  mu: -0.173600000  nElectrons: 331.039652
	SubspaceRotationAdjust: set factor to 0.00981
ElecMinimize: Iter:   7  G: -1745.371252739348620  |grad|_K:  1.093e-06  alpha:  6.212e-01  linmin:  2.474e-05  t[s]:  23972.03
	FillingsUpdate:  mu: -0.173600000  nElectrons: 331.035530
	SubspaceRotationAdjust: set factor to 0.00864
ElecMinimize: Iter:   8  G: -1745.371282993846080  |grad|_K:  1.020e-06  alpha:  5.391e-01  linmin:  3.078e-05  t[s]:  24362.47
	FillingsUpdate:  mu: -0.173600000  nElectrons: 331.038948
	SubspaceRotationAdjust: set factor to 0.00574
ElecMinimize: Iter:   9  G: -1745.371297078418593  |grad|_K:  6.767e-07  alpha:  2.881e-01  linmin:  2.880e-05  t[s]:  24752.65
	FillingsUpdate:  mu: -0.173600000  nElectrons: 331.037585
	SubspaceRotationAdjust: set factor to 0.00729
ElecMinimize: Iter:  10  G: -1745.371306892602433  |grad|_K:  4.359e-07  alpha:  4.560e-01  linmin:  8.260e-06  t[s]:  25149.32
	FillingsUpdate:  mu: -0.173600000  nElectrons: 331.036465
	SubspaceRotationAdjust: set factor to 0.00764
ElecMinimize: Iter:  11  G: -1745.371311094130306  |grad|_K:  3.193e-07  alpha:  4.705e-01  linmin:  2.186e-05  t[s]:  25541.30
	FillingsUpdate:  mu: -0.173600000  nElectrons: 331.037525
	SubspaceRotationAdjust: set factor to 0.00656
ElecMinimize: Iter:  12  G: -1745.371313052851519  |grad|_K:  2.399e-07  alpha:  4.088e-01  linmin: -3.484e-05  t[s]:  25931.00
	FillingsUpdate:  mu: -0.173600000  nElectrons: 331.036931
	SubspaceRotationAdjust: set factor to 0.00742
ElecMinimize: Iter:  13  G: -1745.371314407368118  |grad|_K:  1.763e-07  alpha:  5.001e-01  linmin: -3.233e-05  t[s]:  26324.33
	FillingsUpdate:  mu: -0.173600000  nElectrons: 331.036724
	SubspaceRotationAdjust: set factor to 0.00892
ElecMinimize: Iter:  14  G: -1745.371315235899147  |grad|_K:  1.459e-07  alpha:  5.673e-01  linmin:  4.618e-05  t[s]:  26715.80
	FillingsUpdate:  mu: -0.173600000  nElectrons: 331.037074
	SubspaceRotationAdjust: set factor to 0.00914
ElecMinimize: Iter:  15  G: -1745.371315723285079  |grad|_K:  1.371e-07  alpha:  4.883e-01  linmin:  7.676e-06  t[s]:  27106.70
	FillingsUpdate:  mu: -0.173600000  nElectrons: 331.036520
	SubspaceRotationAdjust: set factor to 0.00882
ElecMinimize: Iter:  16  G: -1745.371316183229283  |grad|_K:  1.376e-07  alpha:  5.215e-01  linmin:  9.561e-05  t[s]:  27499.30
	FillingsUpdate:  mu: -0.173600000  nElectrons: 331.036844
	SubspaceRotationAdjust: set factor to 0.00905
ElecMinimize: Iter:  17  G: -1745.371316762191782  |grad|_K:  1.529e-07  alpha:  6.541e-01  linmin:  1.065e-04  t[s]:  27887.98
	FillingsUpdate:  mu: -0.173600000  nElectrons: 331.036516
	SubspaceRotationAdjust: set factor to 0.00966
ElecMinimize: Iter:  18  G: -1745.371317469194992  |grad|_K:  1.681e-07  alpha:  6.467e-01  linmin: -1.312e-05  t[s]:  28277.72
	FillingsUpdate:  mu: -0.173600000  nElectrons: 331.036441
	SubspaceRotationAdjust: set factor to 0.0105
ElecMinimize: Iter:  19  G: -1745.371318321301715  |grad|_K:  1.546e-07  alpha:  6.405e-01  linmin: -1.295e-05  t[s]:  28669.88
	FillingsUpdate:  mu: -0.173600000  nElectrons: 331.036454
	SubspaceRotationAdjust: set factor to 0.0115
ElecMinimize: Iter:  20  G: -1745.371318963305839  |grad|_K:  1.268e-07  alpha:  5.711e-01  linmin:  3.702e-07  t[s]:  29057.16
	FillingsUpdate:  mu: -0.173600000  nElectrons: 331.036079
	SubspaceRotationAdjust: set factor to 0.0108
ElecMinimize: Iter:  21  G: -1745.371319313419235  |grad|_K:  1.129e-07  alpha:  4.640e-01  linmin:  3.788e-05  t[s]:  29443.02
	FillingsUpdate:  mu: -0.173600000  nElectrons: 331.036500
	SubspaceRotationAdjust: set factor to 0.00806
ElecMinimize: Iter:  22  G: -1745.371319488675681  |grad|_K:  8.899e-08  alpha:  2.918e-01  linmin: -1.641e-06  t[s]:  29835.80
	FillingsUpdate:  mu: -0.173600000  nElectrons: 331.036291
	SubspaceRotationAdjust: set factor to 0.00908
ElecMinimize: Iter:  23  G: -1745.371319652987950  |grad|_K:  7.019e-08  alpha:  4.404e-01  linmin: -2.523e-05  t[s]:  30225.80
ElecMinimize: Converged (|Delta G|<3.342244e-07 for 2 iters).
Setting wave functions to eigenvectors of Hamiltonian

Electronic minimization # 4 changed total free energy by -5.678911e-06 at t[s]:  30243.78

Fluid<-->Electron self-consistency loop converged to 1.000000e-05 hartrees after 4 minimization pairs at t[s]:  30243.78.

# Ionic positions in lattice coordinates:
ion O   0.500000000000000   0.309282071371639   0.278431996196527 1
ion C   0.500000000000000   0.489274329966054   0.250132351186439 1
ion H   0.500000000000000   0.678518766885664   0.268216167027815 1
ion Pt   0.000000000000000   0.000000000000000  -0.166700000000000 0
ion Pt   0.500000000000000   0.500000000000000  -0.166700000000000 0
ion Pt   0.000000000000000   0.500000000000000  -0.166700000000000 0
ion Pt   0.500000000000000   0.000000000000000  -0.166700000000000 0
ion Pt   0.750000000000000   0.250000000000000  -0.083300000000000 0
ion Pt   0.250000000000000   0.750000000000000  -0.083300000000000 0
ion Pt   0.250000000000000   0.250000000000000  -0.083300000000000 0
ion Pt   0.750000000000000   0.750000000000000  -0.083300000000000 0
ion Pt   0.500000000000000   0.000380331890701   0.000099661196990 1
ion Pt   0.000000000000000   0.000609994571978  -0.001653273289343 1
ion Pt   0.000000000000000   0.500329435343742   0.000415104050205 1
ion Pt   0.500000000000000   0.499953157705678   0.000402570761222 1
ion Pt   0.750844663086632   0.250000565521683   0.082924439887454 1
ion Pt   0.249128144452612   0.752405963482662   0.082550247333421 1
ion Pt   0.249155336913368   0.250000565521683   0.082924439887454 1
ion Pt   0.750871855547388   0.752405963482662   0.082550247333421 1
ion Pt   0.000000000000000   0.000127724029408   0.163910100890613 1
ion Pt   0.000000000000000   0.501112096347719   0.162227133205064 1
ion Pt   0.500000000000000   0.002269045524536   0.162371102614103 1
ion Pt   0.500000000000000   0.506058311899725   0.167160787818358 1


# Forces in Lattice coordinates:
force O   0.000000000000000  -0.045570997898787   0.235024822707164 1
force C   0.000000000000000   0.094329273317717  -0.055984646013829 1
force H   0.000000000000000  -0.064520076107483   0.015896201916503 1
force Pt   0.000000000000000   0.000369609398534   0.286641483537127 0
force Pt   0.000000000000000  -0.000570741150698   0.342337433282229 0
force Pt   0.000000000000000  -0.000016689788870   0.307499121966074 0
force Pt   0.000000000000000  -0.000325167123541   0.296740333302910 0
force Pt  -0.011424370092222   0.015378300368878  -0.327158603613713 0
force Pt   0.011179165626880  -0.012868380099849  -0.322584915168595 0
force Pt   0.011424370092222   0.015378300368878  -0.327158603613713 0
force Pt  -0.011179165626880  -0.012868380099849  -0.322584915168595 0
force Pt   0.000000000000000   0.002249443295823  -0.109635239790515 1
force Pt   0.000000000000000   0.004860403574477   0.043590250216024 1
force Pt   0.000000000000000   0.001473445332491  -0.132884814967535 1
force Pt   0.000000000000000   0.002587037014681  -0.110510633298992 1
force Pt  -0.015775735803278   0.021241648940215  -0.125586195978873 1
force Pt   0.017958885579617  -0.017171778424818  -0.102013404697696 1
force Pt   0.015775735803278   0.021241648940215  -0.125586195978873 1
force Pt  -0.017958885579617  -0.017171778424818  -0.102013404697696 1
force Pt   0.000000000000000   0.006718272261936  -0.000230731926823 1
force Pt   0.000000000000000   0.003671233315350   0.102949913850679 1
force Pt   0.000000000000000   0.006624428366220   0.062413637444766 1
force Pt   0.000000000000000  -0.031643033899053   0.272606659113622 1

# Energy components:
   A_diel =       -0.0081582693989865
   Eewald =    27022.6030744175513973
       EH =    28617.6621275034340215
     Eloc =   -57758.7844403492490528
      Enl =      -17.9964520054480346
      Exc =     -571.8974956204823457
 Exc_core =      324.9288165930967693
       KE =      580.8880850796901996
  MuShift =       -0.0012209574264439
-------------------------------------
     Etot =    -1802.6056636082378191
       TS =        0.2335561800447611
-------------------------------------
        F =    -1802.8392197882826622
      muN =      -57.4679001352946131
-------------------------------------
        G =    -1745.3713196529879497

IonicMinimize: Iter:   0  G: -1745.371319652987950  |grad|_K:  2.563e-03  t[s]:  30289.98
IonicMinimize: None of the convergence criteria satisfied after 0 iterations.

#--- Lowdin population analysis ---
# oxidation-state O -0.203
# oxidation-state C +0.279
# oxidation-state H +0.248
# oxidation-state Pt +0.022 +0.022 +0.022 +0.022 -0.008 -0.008 -0.008 -0.008 +0.013 +0.013 +0.013 +0.014 -0.018 -0.019 -0.018 -0.019 +0.017 +0.002 -0.010 -0.078


Dumping '100_2-Solvated.ionpos' ... done
Dumping '100_2-Solvated.n' ... done
Dumping '100_2-Solvated.eigStats' ... 
	eMin: -2.126189 at state 0 ( [ +0.000000 +0.000000 +0.000000 ] spin 0 )
	HOMO: -0.173774 at state 3 ( [ +0.250000 +0.000000 +0.000000 ] spin 0 )
	mu  : -0.173600
	LUMO: -0.173434 at state 1 ( [ +0.000000 +0.250000 +0.000000 ] spin 0 )
	eMax: +0.351849 at state 2 ( [ +0.000000 +0.500000 +0.000000 ] spin 0 )
	HOMO-LUMO gap: +0.000340
	Optical gap  : +0.000850 at state 1 ( [ +0.000000 +0.250000 +0.000000 ] spin 0 )
Dumping '100_2-Solvated.Ecomponents' ... done
End date and time: Fri Apr 26 06:33:17 2019  (Duration: 0-8:25:45.58)
Done!
