--------------------------------------------------------------------------
Initialization of PSM library failed.

  Error: PSM is in the finalized state
--------------------------------------------------------------------------
--------------------------------------------------------------------------
The OpenFabrics (openib) BTL failed to initialize while trying to
allocate some locked memory.  This typically can indicate that the
memlock limits are set too low.  For most HPC installations, the
memlock limits should be set to "unlimited".  The failure occured
here:

  Local host:    node2002
  OMPI source:   btl_openib.c:753
  Function:      ompi_free_list_init_ex_new()
  Device:        qib0
  Memlock limit: 65536

You may need to consult with your system administrator to get this
problem fixed.  This FAQ entry on the Open MPI web site may also be
helpful:

    http://www.open-mpi.org/faq/?category=openfabrics#ib-locked-pages
--------------------------------------------------------------------------

*************** JDFTx 1.4.2 (git hash 74b6e54) ***************

Start date and time: Fri Apr 26 18:11:58 2019
Executable /home/jfm343/JDFTXDIR/build/jdftx with command-line: -i Solvated.in
Running on hosts (process indices):  node2002.physics.cornell.edu (0)
Divided in process groups (process indices):  0 (0)
Resource initialization completed at t[s]:      0.00
Run totals: 1 processes, 12 threads, 0 GPUs


Input parsed successfully to the following command list (including defaults):

basis kpoint-dependent
coords-type Lattice
core-overlap-check vector
coulomb-interaction Slab 001
coulomb-truncation-embed 0 0 0
davidson-band-ratio 1.1
dump End IonicPositions ElecDensity EigStats Ecomponents
dump-name 110_1-Solvated.$VAR
elec-cutoff 20 100
elec-eigen-algo Davidson
elec-ex-corr gga-PBEsol
elec-smearing Fermi 0.01
electronic-minimize  \
	dirUpdateScheme      FletcherReeves \
	linminMethod         DirUpdateRecommended \
	nIterations          200 \
	history              15 \
	knormThreshold       0 \
	energyDiffThreshold  1e-08 \
	nEnergyDiff          2 \
	alphaTstart          1 \
	alphaTmin            1e-10 \
	updateTestStepSize   yes \
	alphaTreduceFactor   0.1 \
	alphaTincreaseFactor 3 \
	nAlphaAdjustMax      3 \
	wolfeEnergy          0.0001 \
	wolfeGradient        0.9 \
	fdTest               no
exchange-regularization WignerSeitzTruncated
fluid NonlinearPCM 298.000000 1.013250
fluid-anion ClO4- 0.2 MeanFieldLJ \
	epsBulk 1 \
	pMol 0 \
	epsInf 1 \
	Pvap 0 \
	sigmaBulk 0 \
	Rvdw 4.55424 \
	Res 0 \
	tauNuc 343133 \
	omegaEl 0.55124 \
	gammaEl 0.257245
fluid-cation Na+ 0.2 MeanFieldLJ \
	epsBulk 1 \
	pMol 0 \
	epsInf 1 \
	Pvap 0 \
	sigmaBulk 0 \
	Rvdw 2.19208 \
	Res 0 \
	tauNuc 343133 \
	omegaEl 0.55124 \
	gammaEl 0.257245
fluid-ex-corr lda-TF lda-PZ
fluid-gummel-loop 10 1.000000e-05
fluid-minimize  \
	dirUpdateScheme      PolakRibiere \
	linminMethod         DirUpdateRecommended \
	nIterations          100 \
	history              15 \
	knormThreshold       1e-11 \
	energyDiffThreshold  0 \
	nEnergyDiff          2 \
	alphaTstart          1 \
	alphaTmin            1e-10 \
	updateTestStepSize   yes \
	alphaTreduceFactor   0.1 \
	alphaTincreaseFactor 3 \
	nAlphaAdjustMax      6 \
	wolfeEnergy          0.0001 \
	wolfeGradient        0.9 \
	fdTest               no
fluid-solvent H2O 55.338 ScalarEOS \
	epsBulk 78.4 \
	pMol 0.92466 \
	epsInf 1.77 \
	Pvap 1.06736e-10 \
	sigmaBulk 4.62e-05 \
	Rvdw 2.61727 \
	Res 1.42 \
	tauNuc 343133 \
	omegaEl 0.55124 \
	gammaEl 0.257245
forces-output-coords Positions
initial-state 110_1-Vacuum.$VAR
ion O   0.739317096179486   0.488624221977643   0.302494796406352 1
ion O   0.409336724764607   0.654346932648383   0.301422990723604 1
ion C   0.502420959253616   0.502245013290545   0.277873912120677 1
ion H   0.390611926214176   0.386924569098334   0.291467012360904 1
ion H   0.795841861815596   0.378383933894279   0.277232743011254 1
ion H   0.246249670779348   0.660043899866952   0.275873030629044 1
ion Pt   0.000000000000000   0.000000000000000  -0.155941670000000 0
ion Pt   0.500000000000000   0.500000000000000  -0.155941670000000 0
ion Pt   0.000000000000000   0.500000000000000  -0.155941670000000 0
ion Pt   0.500000000000000   0.000000000000000  -0.155941670000000 0
ion Pt   0.750000000000000   0.250000000000000  -0.077970830000000 0
ion Pt   0.250000000000000   0.750000000000000  -0.077970830000000 0
ion Pt   0.250000000000000   0.250000000000000  -0.077970830000000 0
ion Pt   0.750000000000000   0.750000000000000  -0.077970830000000 0
ion Pt   0.499917545142280   0.000088333104543   0.002229007882956 1
ion Pt  -0.000239693238248   0.000314485253265   0.002212926547824 1
ion Pt   0.001511431671262   0.499701392531981   0.002386315691324 1
ion Pt   0.501643887017762   0.500218225276001  -0.000150037703143 1
ion Pt   0.749653314890753   0.248169786079780   0.091956014125748 1
ion Pt   0.248571782958870   0.752521857719126   0.091349010673068 1
ion Pt   0.247991574762651   0.247752549049481   0.091807250311548 1
ion Pt   0.749165976839204   0.751827863339843   0.091491381174293 1
ion Pt  -0.000399421648204  -0.000129798422830   0.161646338795673 1
ion Pt  -0.004184522331469   0.501903070447570   0.159187866557621 1
ion Pt   0.499705524512288  -0.000468678477754   0.161217029512483 1
ion Pt   0.493790176438137   0.498612094054708   0.155745236462053 1
ion-species GBRV/$ID_pbesol.uspp
ion-width Ecut
ionic-minimize  \
	dirUpdateScheme      L-BFGS \
	linminMethod         DirUpdateRecommended \
	nIterations          0 \
	history              15 \
	knormThreshold       0.0001 \
	energyDiffThreshold  1e-06 \
	nEnergyDiff          2 \
	alphaTstart          1 \
	alphaTmin            1e-10 \
	updateTestStepSize   yes \
	alphaTreduceFactor   0.1 \
	alphaTincreaseFactor 3 \
	nAlphaAdjustMax      3 \
	wolfeEnergy          0.0001 \
	wolfeGradient        0.9 \
	fdTest               no
kpoint   0.000000000000   0.000000000000   0.000000000000  1.00000000000000
kpoint-folding 4 4 1 
latt-move-scale 1 1 1
latt-scale 1 1 1 
lattice Orthorhombic 10.4761 14.8155 31.4284
lattice-minimize  \
	dirUpdateScheme      L-BFGS \
	linminMethod         DirUpdateRecommended \
	nIterations          0 \
	history              15 \
	knormThreshold       0 \
	energyDiffThreshold  1e-06 \
	nEnergyDiff          2 \
	alphaTstart          1 \
	alphaTmin            1e-10 \
	updateTestStepSize   yes \
	alphaTreduceFactor   0.1 \
	alphaTincreaseFactor 3 \
	nAlphaAdjustMax      3 \
	wolfeEnergy          0.0001 \
	wolfeGradient        0.9 \
	fdTest               no
lcao-params -1 1e-06 0.01
pcm-variant GLSSA13
spintype no-spin
subspace-rotation-factor 1 yes
symmetries automatic
symmetry-threshold 0.0001
target-mu -0.1736 no




---------- Setting up symmetries ----------

Found 8 point-group symmetries of the bravais lattice
Found 1 space-group symmetries with basis
Applied RMS atom displacement 0 bohrs to make symmetries exact.

---------- Initializing the Grid ----------
R = 
[    10.4761          0          0  ]
[          0    14.8155          0  ]
[          0          0    31.4284  ]
unit cell volume = 4877.97
G =
[   0.599762          0          0  ]
[          0   0.424096          0  ]
[          0          0   0.199921  ]
Minimum fftbox size, Smin = [  48  68  144  ]
Chosen fftbox size, S = [  48  70  144  ]

---------- Initializing tighter grid for wavefunction operations ----------
R = 
[    10.4761          0          0  ]
[          0    14.8155          0  ]
[          0          0    31.4284  ]
unit cell volume = 4877.97
G =
[   0.599762          0          0  ]
[          0   0.424096          0  ]
[          0          0   0.199921  ]
Minimum fftbox size, Smin = [  44  60  128  ]
Chosen fftbox size, S = [  48  60  128  ]

---------- Exchange Correlation functional ----------
Initalized PBEsol GGA exchange.
Initalized PBEsol GGA correlation.

---------- Setting up pseudopotentials ----------
Width of ionic core gaussian charges (only for fluid interactions / plotting) set to 0.397384

Reading pseudopotential file '/home/jfm343/JDFTXDIR/build/pseudopotentials/GBRV/o_pbesol.uspp':
  Title: O.  Created by USPP 7.3.6 on 3-2-2014
  Reference state energy: -15.849885.  6 valence electrons in orbitals:
    |200>  occupation: 2  eigenvalue: -0.873214
    |210>  occupation: 4  eigenvalue: -0.330058
  lMax: 2  lLocal: 2  QijEcut: 6
  5 projectors sampled on a log grid with 511 points:
    l: 0  eig: -0.873214  rCut: 1.25
    l: 0  eig: 0.000000  rCut: 1.25
    l: 1  eig: -0.330058  rCut: 1.25
    l: 1  eig: 0.000000  rCut: 1.25
    l: 2  eig: 1.000000  rCut: 1.25
  Partial core density with radius 0.7
  Transforming core density to a uniform radial grid of dG=0.02 with 1265 points.
  Transforming local potential to a uniform radial grid of dG=0.02 with 1265 points.
  Transforming nonlocal projectors to a uniform radial grid of dG=0.02 with 432 points.
  Transforming density augmentations to a uniform radial grid of dG=0.02 with 1265 points.
  Transforming atomic orbitals to a uniform radial grid of dG=0.02 with 432 points.
  Core radius for overlap checks: 1.25 bohrs.

Reading pseudopotential file '/home/jfm343/JDFTXDIR/build/pseudopotentials/GBRV/c_pbesol.uspp':
  Title: C.  Created by USPP 7.3.6 on 3-2-2014
  Reference state energy: -5.383511.  4 valence electrons in orbitals:
    |200>  occupation: 2  eigenvalue: -0.501126
    |210>  occupation: 2  eigenvalue: -0.192448
  lMax: 1  lLocal: 2  QijEcut: 5
  4 projectors sampled on a log grid with 503 points:
    l: 0  eig: -0.501126  rCut: 1.3
    l: 0  eig: 0.000000  rCut: 1.3
    l: 1  eig: -0.192448  rCut: 1.3
    l: 1  eig: 0.000000  rCut: 1.3
  Partial core density with radius 1.1
  Transforming core density to a uniform radial grid of dG=0.02 with 1265 points.
  Transforming local potential to a uniform radial grid of dG=0.02 with 1265 points.
  Transforming nonlocal projectors to a uniform radial grid of dG=0.02 with 432 points.
  Transforming density augmentations to a uniform radial grid of dG=0.02 with 1265 points.
  Transforming atomic orbitals to a uniform radial grid of dG=0.02 with 432 points.
  Core radius for overlap checks: 1.30 bohrs.

Reading pseudopotential file '/home/jfm343/JDFTXDIR/build/pseudopotentials/GBRV/h_pbesol.uspp':
  Title: H.  Created by USPP 7.3.6 on 22-9-15
  Reference state energy: -0.449841.  1 valence electrons in orbitals:
    |100>  occupation: 1  eigenvalue: -0.232690
  lMax: 0  lLocal: 1  QijEcut: 6
  2 projectors sampled on a log grid with 395 points:
    l: 0  eig: -0.232690  rCut: 1.2
    l: 0  eig: 1.000000  rCut: 1.2
  Transforming local potential to a uniform radial grid of dG=0.02 with 1265 points.
  Transforming nonlocal projectors to a uniform radial grid of dG=0.02 with 432 points.
  Transforming density augmentations to a uniform radial grid of dG=0.02 with 1265 points.
  Transforming atomic orbitals to a uniform radial grid of dG=0.02 with 432 points.
  Core radius for overlap checks: 1.20 bohrs.

Reading pseudopotential file '/home/jfm343/JDFTXDIR/build/pseudopotentials/GBRV/pt_pbesol.uspp':
  Title: Pt.  Created by USPP 7.3.6 on 22-9-15
  Reference state energy: -104.899005.  16 valence electrons in orbitals:
    |510>  occupation: 6  eigenvalue: -2.158847
    |520>  occupation: 9.5  eigenvalue: -0.336311
    |600>  occupation: 0  eigenvalue: -0.320324
    |610>  occupation: 0  eigenvalue: -0.119800
  lMax: 2  lLocal: 3  QijEcut: 5.5
  6 projectors sampled on a log grid with 745 points:
    l: 0  eig: -0.320324  rCut: 2.45
    l: 0  eig: 1.500000  rCut: 2.45
    l: 1  eig: -2.158847  rCut: 1.6
    l: 1  eig: -0.119800  rCut: 1.6
    l: 2  eig: -0.500000  rCut: 1.6
    l: 2  eig: -0.336311  rCut: 1.6
  Partial core density with radius 1.1
  Transforming core density to a uniform radial grid of dG=0.02 with 1265 points.
  Transforming local potential to a uniform radial grid of dG=0.02 with 1265 points.
  Transforming nonlocal projectors to a uniform radial grid of dG=0.02 with 432 points.
  Transforming density augmentations to a uniform radial grid of dG=0.02 with 1265 points.
  Transforming atomic orbitals to a uniform radial grid of dG=0.02 with 432 points.
  Core radius for overlap checks: 2.45 bohrs.

Initialized 4 species with 26 total atoms.

Folded 1 k-points by 4x4x1 to 16 k-points.

---------- Setting up k-points, bands, fillings ----------
Adding inversion symmetry to k-mesh for non-inversion-symmetric unit cell.
Reduced to 10 k-points under symmetry. 
Computing the number of bands and number of electrons
Reading initial fillings from file 110_1-Vacuum.fillings.
nElectrons: 339.000000   nBands: 255   nStates: 10

----- Setting up reduced wavefunction bases (one per k-point) -----
average nbasis = 20843.562 , ideal nbasis = 20839.040

---------- Setting up coulomb interaction ----------
Fluid mode embedding: using embedded box, but periodic Coulomb kernel.
(Fluid response is responsible for (approximate) separation between periodic images.)
Setting up double-sized grid for truncated Coulomb potentials:
R = 
[    10.4761          0          0  ]
[          0    14.8155          0  ]
[          0          0    62.8568  ]
unit cell volume = 9755.93
G =
[   0.599762          0          0  ]
[          0   0.424096          0  ]
[          0          0  0.0999604  ]
Chosen fftbox size, S = [  48  70  288  ]
Integer grid location selected as the embedding center:
   Grid: [  0  0  0  ]
   Lattice: [  0  0  0  ]
   Cartesian: [  0  0  0  ]
Constructing Wigner-Seitz cell: 6 faces (6 quadrilaterals, 0 hexagons)
Range-separation parameter for embedded mesh potentials due to point charges: 0.589372 bohrs.

---------- Setting up ewald sum ----------
Optimum gaussian width for ewald sums = 4.952647 bohr.
Real space sum over 715 unit cells with max indices [  6  5  2  ]
Reciprocal space sum over 6149 terms with max indices [  5  6  21  ]

---------- Allocating electronic variables ----------
Initializing wave functions:  reading from '110_1-Vacuum.wfns'
----- createFluidSolver() ----- (Fluid-side solver setup)
   Initializing fluid molecule 'H2O'
     Initializing site 'O'
       Electron density: proportional to exp(-r/0.36935)*erfc((r-0.51523)/0.36823) with norm 6.826
       Charge density: gaussian nuclear width 0.478731 with net site charge 0.826
       Polarizability: cuspless exponential with width 0.32 and norm 3.73
       Hard sphere radius: 2.57003 bohrs
       Positions in reference frame:
         [ +0.000000 +0.000000 +0.000000 ]
     Initializing site 'H'
       Electron density: proportional to exp(-r/0.34641)*erfc((r-0)/0.390882) with norm 0.587
       Charge density: gaussian nuclear width 0.377945 with net site charge -0.413
       Polarizability: cuspless exponential with width 0.39 and norm 3.3
       Positions in reference frame:
         [ +0.000000 -1.441945 +1.122523 ]
         [ +0.000000 +1.441945 +1.122523 ]
     Net charge: 0   dipole magnitude: 0.927204
     Initializing spherical shell mfKernel with radius 2.61727 Bohr
     deltaS corrections:
       site 'O': -7.54299
       site 'H': -6.83917
   Initializing fluid molecule 'Na+'
     Initializing site 'Na'
       Electron density: proportional to exp(-r/0.19682)*erfc((r-0.71491)/0.41314) with norm 8.1383
       Charge density: gaussian nuclear width 0.365347 with net site charge -1
       Hard sphere radius: 1.86327 bohrs
       Positions in reference frame:
         [ +0.000000 +0.000000 +0.000000 ]
     Net charge: -1   dipole magnitude: 0
     Initializing gaussian mfKernel with width: 1.55004 Bohr
     deltaS corrections:
       site 'Na': -22.3555
   Initializing fluid molecule 'ClO4-'
     Initializing site 'Cl'
       Electron density: proportional to exp(-r/0.48793)*erfc((r-0.93371)/0.45657) with norm 6.2308
       Charge density: gaussian nuclear width 0.55117 with net site charge -0.7692
       Hard sphere radius: 4.42196 bohrs
       Positions in reference frame:
         [ +0.000000 +0.000000 +0.000000 ]
     Initializing site 'O'
       Electron density: proportional to exp(-r/0.36013)*erfc((r-0.51636)/0.37371) with norm 6.4423
       Charge density: gaussian nuclear width 0.478731 with net site charge 0.4423
       Positions in reference frame:
         [ +1.705286 +1.705286 +1.705286 ]
         [ +1.705286 -1.705286 -1.705286 ]
         [ -1.705286 +1.705286 -1.705286 ]
         [ -1.705286 -1.705286 +1.705286 ]
     Net charge: 1   dipole magnitude: 0
     Initializing gaussian mfKernel with width: 3.22033 Bohr
     deltaS corrections:
       site 'Cl': -87.0374
       site 'O': 12.0842

Correction to mu due to finite nuclear width = -0.0344771
   Cavity determined by nc: 0.001 and sigma: 0.6
   Effective cavity tension: 9.5e-06 Eh/bohr^2 to account for cavitation and dispersion.
   Nonlinear dielectric with epsBulk = 78.4 and epsInf = 1.77 with density Nmol = 0.0049383 of dipoles pMol = 0.92466 at T = 298 K.
   Nonlinear ions with screening length = 12.843 bohrs and Z = 1 at T = 298 K.


---- Citations for features of the code used in this run ----

   Software package:
      R. Sundararaman, K. Letchworth-Weaver, K.A. Schwarz, D. Gunceler, Y. Ozhabes and T.A. Arias, 'JDFTx: software for joint density-functional theory', SoftwareX 6, 278 (2017)

   gga-PBEsol exchange-correlation functional:
      J.P. Perdew et al., Phys. Rev. Lett. 100, 136406 (2008)

   Pseudopotentials:
      KF Garrity, JW Bennett, KM Rabe and D Vanderbilt, Comput. Mater. Sci. 81, 446 (2014)

   Truncated Coulomb potentials:
      R. Sundararaman and T.A. Arias, Phys. Rev. B 87, 165122 (2013)

   Linear/nonlinear dielectric/ionic fluid model with effective cavity tension:
      D. Gunceler, K. Letchworth-Weaver, R. Sundararaman, K.A. Schwarz and T.A. Arias, Modelling Simul. Mater. Sci. Eng. 21, 074005 (2013)

   Total energy minimization with Auxiliary Hamiltonian:
      C. Freysoldt, S. Boeck, and J. Neugebauer, Phys. Rev. B 79, 241103(R) (2009)

   Grand-canonical (fixed-potential) DFT:
      R. Sundararaman, W. A. Goddard III and T. A. Arias, J. Chem. Phys. 146, 114104 (2017)

This list may not be complete. Please suggest additional citations or
report any other bugs at https://github.com/shankar1729/jdftx/issues

Initialization completed successfully at t[s]:    109.10

Shifting auxilliary hamiltonian by 0.016123 to set nElectrons=339.000000
Initializing state of NonlinearPCM using a similar LinearPCM: 	Linear fluid (dielectric constant: 78.4, screening length: 12.843 Bohr) occupying 0.697542 of unit cell:	Completed after 45 iterations at t[s]:    123.03

-------- Electron <-> Fluid self-consistency loop -----------

---------------------- Fluid Minimization # 1 -----------------------
FluidMinimize: Iter:   0  G: -0.002618344454669  |grad|_K:  5.250e-05  alpha:  1.000e+00
FluidMinimize: Iter:   1  G: -0.002618377428726  |grad|_K:  5.248e-05  alpha:  6.183e-06  linmin: -7.456e-02  cgtest:  1.000e+00  t[s]:    125.70
FluidMinimize: Encountered beta<0, resetting CG.
FluidMinimize: 	Predicted alpha/alphaT>3.000000, increasing alphaT to 1.854807e-05.
FluidMinimize: 	Predicted alpha/alphaT>3.000000, increasing alphaT to 5.564422e-05.
FluidMinimize: 	Predicted alpha/alphaT>3.000000, increasing alphaT to 1.669327e-04.
FluidMinimize: 	Predicted alpha/alphaT>3.000000, increasing alphaT to 5.007980e-04.
FluidMinimize: 	Predicted alpha/alphaT>3.000000, increasing alphaT to 1.502394e-03.
FluidMinimize: 	Predicted alpha/alphaT>3.000000, increasing alphaT to 4.507182e-03.
FluidMinimize: Iter:   2  G: -0.002664790044324  |grad|_K:  4.693e-05  alpha:  1.744e-02  linmin:  3.397e-04  cgtest: -4.888e-03  t[s]:    127.44
FluidMinimize: 	Predicted alpha/alphaT>3.000000, increasing alphaT to 5.233012e-02.
FluidMinimize: Iter:   3  G: -0.002982521882488  |grad|_K:  6.200e-05  alpha:  1.451e-01  linmin: -1.410e-02  cgtest:  7.719e-02  t[s]:    128.21
FluidMinimize: Iter:   4  G: -0.003111926911046  |grad|_K:  2.721e-05  alpha:  3.407e-02  linmin:  1.169e-03  cgtest: -2.925e-01  t[s]:    128.75
FluidMinimize: Iter:   5  G: -0.003147244200427  |grad|_K:  4.731e-05  alpha:  4.957e-02  linmin: -1.327e-03  cgtest:  3.608e-02  t[s]:    129.28
FluidMinimize: Iter:   6  G: -0.003233296442386  |grad|_K:  2.467e-05  alpha:  3.986e-02  linmin: -3.117e-03  cgtest: -1.579e-01  t[s]:    129.82
FluidMinimize: Iter:   7  G: -0.003281351498063  |grad|_K:  2.737e-05  alpha:  7.843e-02  linmin: -5.486e-03  cgtest: -2.503e-02  t[s]:    130.35
FluidMinimize: Iter:   8  G: -0.003326697767327  |grad|_K:  3.751e-05  alpha:  5.956e-02  linmin:  5.190e-04  cgtest: -8.620e-02  t[s]:    130.90
FluidMinimize: Iter:   9  G: -0.003355985080213  |grad|_K:  2.139e-05  alpha:  2.232e-02  linmin:  2.527e-03  cgtest:  4.259e-02  t[s]:    131.44
FluidMinimize: 	Predicted alpha/alphaT>3.000000, increasing alphaT to 6.696718e-02.
FluidMinimize: Iter:  10  G: -0.003392131094659  |grad|_K:  2.851e-05  alpha:  8.246e-02  linmin: -4.431e-03  cgtest:  3.486e-02  t[s]:    132.22
FluidMinimize: Iter:  11  G: -0.003415799505219  |grad|_K:  2.948e-05  alpha:  2.921e-02  linmin: -2.869e-04  cgtest: -5.052e-02  t[s]:    132.75
FluidMinimize: Iter:  12  G: -0.003449812389998  |grad|_K:  1.845e-05  alpha:  4.004e-02  linmin: -3.076e-03  cgtest:  1.028e-01  t[s]:    133.31
FluidMinimize: Iter:  13  G: -0.003465081904552  |grad|_K:  2.545e-05  alpha:  4.545e-02  linmin: -1.641e-03  cgtest: -1.613e-02  t[s]:    133.84
FluidMinimize: Iter:  14  G: -0.003487032447989  |grad|_K:  2.034e-05  alpha:  3.461e-02  linmin: -1.065e-04  cgtest: -2.582e-02  t[s]:    134.39
FluidMinimize: Iter:  15  G: -0.003513777223222  |grad|_K:  2.047e-05  alpha:  6.788e-02  linmin:  4.953e-03  cgtest: -3.888e-02  t[s]:    134.92
FluidMinimize: Iter:  16  G: -0.003523334278617  |grad|_K:  1.964e-05  alpha:  2.469e-02  linmin:  5.494e-04  cgtest:  3.832e-02  t[s]:    135.47
FluidMinimize: 	Predicted alpha/alphaT>3.000000, increasing alphaT to 7.408354e-02.
FluidMinimize: Iter:  17  G: -0.003560596759532  |grad|_K:  2.433e-05  alpha:  9.963e-02  linmin: -3.483e-03  cgtest: -6.181e-02  t[s]:    136.23
FluidMinimize: Iter:  18  G: -0.003584177705263  |grad|_K:  2.208e-05  alpha:  2.981e-02  linmin: -3.869e-02  cgtest:  2.816e-01  t[s]:    136.76
FluidMinimize: Iter:  19  G: -0.003603242788151  |grad|_K:  2.095e-05  alpha:  3.309e-02  linmin: -2.458e-04  cgtest: -2.707e-01  t[s]:    137.30
FluidMinimize: 	Predicted alpha/alphaT>3.000000, increasing alphaT to 9.927089e-02.
FluidMinimize: Iter:  20  G: -0.003619539748925  |grad|_K:  2.586e-05  alpha:  2.008e-02  linmin: -9.172e-02  cgtest:  9.506e-01  t[s]:    138.08
FluidMinimize: Iter:  21  G: -0.003656073354186  |grad|_K:  3.282e-05  alpha:  4.681e-02  linmin: -6.182e-04  cgtest: -2.953e-01  t[s]:    138.63
FluidMinimize: 	Step increased G by 2.835696e-05, reducing alpha to 6.230897e-03.
FluidMinimize: Iter:  22  G: -0.003668939175047  |grad|_K:  3.389e-05  alpha:  6.231e-03  linmin: -1.231e-01  cgtest:  9.829e-01  t[s]:    139.45
FluidMinimize: 	Predicted alpha/alphaT>3.000000, increasing alphaT to 1.869269e-02.
FluidMinimize: Iter:  23  G: -0.003696401045359  |grad|_K:  2.573e-05  alpha:  2.365e-02  linmin:  8.176e-04  cgtest: -8.023e-02  t[s]:    140.22
FluidMinimize: Iter:  24  G: -0.003712655578221  |grad|_K:  6.329e-05  alpha:  3.051e-02  linmin:  4.470e-02  cgtest:  2.886e-02  t[s]:    140.77
FluidMinimize: Iter:  25  G: -0.003713009376274  |grad|_K:  6.411e-05  alpha:  1.006e-04  linmin: -7.093e-02  cgtest:  1.000e+00  t[s]:    141.30
FluidMinimize: 	Predicted alpha/alphaT>3.000000, increasing alphaT to 3.018548e-04.
FluidMinimize: 	Predicted alpha/alphaT>3.000000, increasing alphaT to 9.055643e-04.
FluidMinimize: 	Predicted alpha/alphaT>3.000000, increasing alphaT to 2.716693e-03.
FluidMinimize: Iter:  26  G: -0.003737952024407  |grad|_K:  2.434e-05  alpha:  5.759e-03  linmin: -3.509e-02  cgtest:  3.805e-01  t[s]:    142.55
FluidMinimize: Encountered beta<0, resetting CG.
FluidMinimize: 	Predicted alpha/alphaT>3.000000, increasing alphaT to 1.727727e-02.
FluidMinimize: 	Predicted alpha/alphaT>3.000000, increasing alphaT to 5.183182e-02.
FluidMinimize: Iter:  27  G: -0.003769327618655  |grad|_K:  4.557e-05  alpha:  5.504e-02  linmin:  4.897e-03  cgtest: -3.049e-02  t[s]:    143.56
FluidMinimize: Iter:  28  G: -0.003787478389682  |grad|_K:  4.458e-05  alpha:  5.071e-03  linmin: -1.211e-01  cgtest:  9.884e-01  t[s]:    144.10
FluidMinimize: Encountered beta<0, resetting CG.
FluidMinimize: Iter:  29  G: -0.003815238712350  |grad|_K:  3.285e-05  alpha:  1.424e-02  linmin: -2.169e-03  cgtest:  3.143e-02  t[s]:    144.65
FluidMinimize: Iter:  30  G: -0.003829374192775  |grad|_K:  4.016e-05  alpha:  1.285e-02  linmin:  7.859e-03  cgtest: -1.292e-01  t[s]:    145.19
FluidMinimize: Iter:  31  G: -0.003840190518694  |grad|_K:  1.660e-04  alpha:  2.795e-02  linmin:  5.471e-02  cgtest:  7.152e-01  t[s]:    145.74
FluidMinimize: 	Bad step direction: g.d > 0.
FluidMinimize: 	Undoing step.
FluidMinimize: 	Step failed: resetting search direction.
FluidMinimize: Iter:  32  G: -0.003840190518694  |grad|_K:  1.660e-04  alpha:  0.000e+00
FluidMinimize: 	Step increased G by 1.123178e-04, reducing alpha to 1.075200e-03.
FluidMinimize: Iter:  33  G: -0.003882062984910  |grad|_K:  8.319e-05  alpha:  1.075e-03  linmin: -1.143e-01  cgtest:  9.770e-01  t[s]:    146.84
FluidMinimize: Encountered beta<0, resetting CG.
FluidMinimize: Iter:  34  G: -0.003904141053189  |grad|_K:  3.159e-05  alpha:  3.026e-03  linmin: -3.923e-02  cgtest:  4.085e-01  t[s]:    147.42
FluidMinimize: Encountered beta<0, resetting CG.
FluidMinimize: 	Predicted alpha/alphaT>3.000000, increasing alphaT to 9.076595e-03.
FluidMinimize: Iter:  35  G: -0.003927259657576  |grad|_K:  2.938e-05  alpha:  2.411e-02  linmin:  1.036e-03  cgtest: -1.523e-02  t[s]:    148.21
FluidMinimize: Iter:  36  G: -0.003952710239735  |grad|_K:  5.850e-05  alpha:  2.998e-02  linmin: -9.953e-03  cgtest:  4.239e-02  t[s]:    148.76
FluidMinimize: Iter:  37  G: -0.003961061978038  |grad|_K:  5.412e-05  alpha:  1.171e-03  linmin: -1.551e-01  cgtest:  9.980e-01  t[s]:    149.30
FluidMinimize: Encountered beta<0, resetting CG.
FluidMinimize: 	Predicted alpha/alphaT>3.000000, increasing alphaT to 3.513615e-03.
FluidMinimize: Iter:  38  G: -0.003975217242413  |grad|_K:  3.400e-05  alpha:  5.340e-03  linmin:  1.821e-02  cgtest: -2.593e-01  t[s]:    150.09
FluidMinimize: 	Predicted alpha/alphaT>3.000000, increasing alphaT to 1.602007e-02.
FluidMinimize: Iter:  39  G: -0.003991236688648  |grad|_K:  4.872e-05  alpha:  1.874e-02  linmin:  1.307e-03  cgtest:  6.542e-01  t[s]:    150.88
FluidMinimize: Iter:  40  G: -0.004000178025978  |grad|_K:  4.092e-05  alpha:  6.178e-03  linmin:  5.184e-02  cgtest: -3.684e-01  t[s]:    151.42
FluidMinimize: 	Predicted alpha/alphaT>3.000000, increasing alphaT to 1.853403e-02.
FluidMinimize: Iter:  41  G: -0.004048599205661  |grad|_K:  5.024e-05  alpha:  5.163e-02  linmin:  3.346e-02  cgtest: -1.701e-01  t[s]:    152.20
FluidMinimize: Iter:  42  G: -0.004060490980118  |grad|_K:  4.326e-05  alpha:  4.442e-03  linmin: -6.063e-02  cgtest:  9.825e-01  t[s]:    152.73
FluidMinimize: Encountered beta<0, resetting CG.
FluidMinimize: Iter:  43  G: -0.004079097476456  |grad|_K:  4.119e-05  alpha:  9.520e-03  linmin: -1.563e-02  cgtest:  1.546e-01  t[s]:    153.28
FluidMinimize: Iter:  44  G: -0.004094741219388  |grad|_K:  3.471e-05  alpha:  8.060e-03  linmin:  6.449e-03  cgtest: -3.243e-01  t[s]:    153.85
FluidMinimize: Iter:  45  G: -0.004105973430006  |grad|_K:  5.131e-05  alpha:  1.156e-02  linmin:  2.761e-03  cgtest:  7.939e-01  t[s]:    154.40
FluidMinimize: Iter:  46  G: -0.004117144055286  |grad|_K:  4.448e-05  alpha:  5.356e-03  linmin:  9.740e-03  cgtest: -1.094e-01  t[s]:    154.94
FluidMinimize: 	Predicted alpha/alphaT>3.000000, increasing alphaT to 1.606676e-02.
FluidMinimize: Iter:  47  G: -0.004144327185499  |grad|_K:  3.424e-05  alpha:  1.531e-02  linmin:  1.005e-02  cgtest: -3.274e-01  t[s]:    155.72
FluidMinimize: Iter:  48  G: -0.004168212414650  |grad|_K:  3.088e-05  alpha:  2.272e-02  linmin: -3.222e-02  cgtest:  4.550e-01  t[s]:    156.26
FluidMinimize: Iter:  49  G: -0.004188422484843  |grad|_K:  4.733e-05  alpha:  2.008e-02  linmin:  2.510e-03  cgtest: -6.197e-02  t[s]:    156.83
FluidMinimize: Iter:  50  G: -0.004199547684006  |grad|_K:  4.037e-05  alpha:  6.730e-03  linmin:  1.083e-02  cgtest: -6.398e-02  t[s]:    157.37
FluidMinimize: 	Predicted alpha/alphaT>3.000000, increasing alphaT to 2.019098e-02.
FluidMinimize: Iter:  51  G: -0.004226281279767  |grad|_K:  5.509e-05  alpha:  1.939e-02  linmin:  1.047e-02  cgtest:  8.679e-03  t[s]:    158.14
FluidMinimize: Iter:  52  G: -0.004246270737994  |grad|_K:  3.735e-05  alpha:  9.836e-03  linmin:  4.235e-03  cgtest:  2.277e-01  t[s]:    158.67
FluidMinimize: Iter:  53  G: -0.004270605868987  |grad|_K:  8.445e-05  alpha:  2.416e-02  linmin:  2.365e-02  cgtest: -1.011e-01  t[s]:    159.21
FluidMinimize: Iter:  54  G: -0.004271651086321  |grad|_K:  8.407e-05  alpha:  1.467e-04  linmin: -2.636e-02  cgtest:  9.998e-01  t[s]:    159.75
FluidMinimize: Encountered beta<0, resetting CG.
FluidMinimize: 	Predicted alpha/alphaT>3.000000, increasing alphaT to 4.401695e-04.
FluidMinimize: 	Predicted alpha/alphaT>3.000000, increasing alphaT to 1.320509e-03.
FluidMinimize: Iter:  55  G: -0.004292061282749  |grad|_K:  3.328e-05  alpha:  2.858e-03  linmin: -1.094e-02  cgtest:  2.117e-01  t[s]:    160.82
FluidMinimize: 	Predicted alpha/alphaT>3.000000, increasing alphaT to 8.574862e-03.
FluidMinimize: Iter:  56  G: -0.004314606025152  |grad|_K:  5.636e-05  alpha:  2.503e-02  linmin:  2.120e-02  cgtest: -3.175e-01  t[s]:    161.61
FluidMinimize: Iter:  57  G: -0.004320741495084  |grad|_K:  5.226e-05  alpha:  4.137e-03  linmin:  3.295e-03  cgtest:  7.614e-01  t[s]:    162.16
FluidMinimize: Iter:  58  G: -0.004347271816987  |grad|_K:  4.582e-05  alpha:  9.378e-03  linmin: -2.324e-02  cgtest:  1.412e-01  t[s]:    162.69
FluidMinimize: Iter:  59  G: -0.004357656936256  |grad|_K:  2.660e-05  alpha:  4.281e-03  linmin: -3.135e-03  cgtest: -1.095e-01  t[s]:    163.26
FluidMinimize: 	Predicted alpha/alphaT>3.000000, increasing alphaT to 1.284448e-02.
FluidMinimize: 	Predicted alpha/alphaT>3.000000, increasing alphaT to 3.853345e-02.
FluidMinimize: Iter:  60  G: -0.004401558998572  |grad|_K:  1.187e-04  alpha:  7.475e-02  linmin:  3.983e-02  cgtest:  4.644e-01  t[s]:    164.29
FluidMinimize: Iter:  61  G: -0.004401558998645  |grad|_K:  1.187e-04  alpha:  4.802e-12  linmin: -5.325e-02  cgtest:  1.000e+00  t[s]:    164.84
FluidMinimize: Encountered beta<0, resetting CG.
FluidMinimize: Iter:  62  G: -0.004401559438956  |grad|_K:  1.187e-04  alpha:  1.614e-08  linmin: -1.088e-01  cgtest:  1.000e+00  t[s]:    165.39
FluidMinimize: Encountered beta<0, resetting CG.
FluidMinimize: Converged (|Delta G|<1.000000e-05 for 2 iters).

Fluid minimization # 1 changed total free energy by -1.783215e-03 at t[s]:    165.71

-------------------- Electronic Minimization # 1 ---------------------
	FillingsUpdate:  mu: -0.173600000  nElectrons: 339.000000
ElecMinimize: Iter:   0  G: -1761.070220525803961  |grad|_K:  1.798e-05  alpha:  1.000e+00
	FillingsUpdate:  mu: -0.173600000  nElectrons: 339.024301
	SubspaceRotationAdjust: set factor to 0.515
ElecMinimize: Iter:   1  G: -1761.070332677218175  |grad|_K:  2.103e-05  alpha:  8.968e-03  linmin:  1.687e-02  t[s]:    798.35
	FillingsUpdate:  mu: -0.173600000  nElectrons: 339.009212
	SubspaceRotationAdjust: set factor to 0.308
ElecMinimize: Iter:   2  G: -1761.070476797505080  |grad|_K:  9.161e-06  alpha:  8.396e-03  linmin: -3.670e-05  t[s]:   1243.65
	FillingsUpdate:  mu: -0.173600000  nElectrons: 338.993130
	SubspaceRotationAdjust: set factor to 0.199
ElecMinimize: Iter:   3  G: -1761.070527339832779  |grad|_K:  7.843e-06  alpha:  1.125e-02  linmin: -4.154e-05  t[s]:   1676.98
ElecMinimize: 	Predicted alpha/alphaT>3.000000, increasing alphaT to 3.374233e-02.
	FillingsUpdate:  mu: -0.173600000  nElectrons: 338.968045
	SubspaceRotationAdjust: set factor to 0.103
	SubspaceRotationAdjust: resetting CG because factor has changed by 0.102726
ElecMinimize: 	State modified externally: resetting search direction.
ElecMinimize: Iter:   4  G: -1761.070848441523140  |grad|_K:  1.161e-05  alpha:  9.807e-02
	FillingsUpdate:  mu: -0.173600000  nElectrons: 339.001282
	SubspaceRotationAdjust: set factor to 0.0565
ElecMinimize: Iter:   5  G: -1761.071092137188543  |grad|_K:  2.871e-06  alpha:  3.383e-02  linmin:  6.682e-05  t[s]:   2850.50
ElecMinimize: 	Predicted alpha/alphaT>3.000000, increasing alphaT to 1.014843e-01.
ElecMinimize: 	Predicted alpha/alphaT>3.000000, increasing alphaT to 3.044528e-01.
	FillingsUpdate:  mu: -0.173600000  nElectrons: 338.990450
	SubspaceRotationAdjust: set factor to 0.0485
ElecMinimize: Iter:   6  G: -1761.071333526031367  |grad|_K:  2.884e-06  alpha:  5.460e-01  linmin: -3.632e-04  t[s]:   3496.06
	FillingsUpdate:  mu: -0.173600000  nElectrons: 338.988547
	SubspaceRotationAdjust: set factor to 0.064
ElecMinimize: Iter:   7  G: -1761.071513894035888  |grad|_K:  1.760e-06  alpha:  4.005e-01  linmin:  9.773e-05  t[s]:   3940.78
	FillingsUpdate:  mu: -0.173600000  nElectrons: 338.988449
	SubspaceRotationAdjust: set factor to 0.0766
ElecMinimize: Iter:   8  G: -1761.071619331792135  |grad|_K:  1.749e-06  alpha:  6.363e-01  linmin: -1.571e-04  t[s]:   4381.66
	FillingsUpdate:  mu: -0.173600000  nElectrons: 338.972135
	SubspaceRotationAdjust: set factor to 0.0433
ElecMinimize: Iter:   9  G: -1761.071697726074262  |grad|_K:  3.947e-06  alpha:  4.773e-01  linmin: -1.100e-05  t[s]:   4827.82
	FillingsUpdate:  mu: -0.173600000  nElectrons: 338.983347
	SubspaceRotationAdjust: set factor to 0.0299
ElecMinimize: Iter:  10  G: -1761.071785536132211  |grad|_K:  2.128e-06  alpha:  1.060e-01  linmin:  7.012e-05  t[s]:   5270.03
ElecMinimize: 	Predicted alpha/alphaT>3.000000, increasing alphaT to 3.180776e-01.
	FillingsUpdate:  mu: -0.173600000  nElectrons: 338.984659
	SubspaceRotationAdjust: set factor to 0.0337
ElecMinimize: Iter:  11  G: -1761.071916650985031  |grad|_K:  2.314e-06  alpha:  5.456e-01  linmin:  5.141e-05  t[s]:   5820.86
	FillingsUpdate:  mu: -0.173600000  nElectrons: 338.968050
	SubspaceRotationAdjust: set factor to 0.0263
ElecMinimize: Iter:  12  G: -1761.072007219097941  |grad|_K:  2.491e-06  alpha:  3.186e-01  linmin:  7.539e-06  t[s]:   6271.31
	FillingsUpdate:  mu: -0.173600000  nElectrons: 338.974922
	SubspaceRotationAdjust: set factor to 0.0221
ElecMinimize: Iter:  13  G: -1761.072084899506308  |grad|_K:  1.439e-06  alpha:  2.346e-01  linmin: -1.018e-05  t[s]:   6715.86
	FillingsUpdate:  mu: -0.173600000  nElectrons: 338.974943
	SubspaceRotationAdjust: set factor to 0.0255
ElecMinimize: Iter:  14  G: -1761.072135653057103  |grad|_K:  1.038e-06  alpha:  4.585e-01  linmin:  3.156e-05  t[s]:   7151.75
	FillingsUpdate:  mu: -0.173600000  nElectrons: 338.968791
	SubspaceRotationAdjust: set factor to 0.0185
ElecMinimize: Iter:  15  G: -1761.072152469856292  |grad|_K:  7.940e-07  alpha:  2.919e-01  linmin: -3.970e-06  t[s]:   7590.43
	FillingsUpdate:  mu: -0.173600000  nElectrons: 338.971500
	SubspaceRotationAdjust: set factor to 0.0167
ElecMinimize: Iter:  16  G: -1761.072162638316740  |grad|_K:  4.736e-07  alpha:  3.016e-01  linmin: -1.064e-05  t[s]:   8020.52
	FillingsUpdate:  mu: -0.173600000  nElectrons: 338.971432
	SubspaceRotationAdjust: set factor to 0.0209
ElecMinimize: Iter:  17  G: -1761.072167855076486  |grad|_K:  3.427e-07  alpha:  4.348e-01  linmin:  3.126e-06  t[s]:   8469.72
	FillingsUpdate:  mu: -0.173600000  nElectrons: 338.969795
	SubspaceRotationAdjust: set factor to 0.0209
ElecMinimize: Iter:  18  G: -1761.072170616712810  |grad|_K:  3.108e-07  alpha:  4.397e-01  linmin:  3.704e-05  t[s]:   8923.13
ElecMinimize: Converged (|Delta G|<1.000000e-05 for 2 iters).
Setting wave functions to eigenvectors of Hamiltonian

Electronic minimization # 1 changed total free energy by -1.950091e-03 at t[s]:   8943.20

---------------------- Fluid Minimization # 2 -----------------------
FluidMinimize: Iter:   0  G: -0.003982350414628  |grad|_K:  2.107e-04  alpha:  1.000e+00
FluidMinimize: Iter:   1  G: -0.003982350592062  |grad|_K:  2.107e-04  alpha:  2.066e-09  linmin: -1.464e-01  cgtest:  1.000e+00  t[s]:   8944.06
FluidMinimize: Encountered beta<0, resetting CG.
FluidMinimize: 	Wrong curvature in test step, increasing alphaT to 6.198174e-09.
FluidMinimize: Iter:   2  G: -0.003982350769496  |grad|_K:  2.107e-04  alpha: -1.718e-03  linmin: -1.464e-01  cgtest:  1.000e+00  t[s]:   8944.62
FluidMinimize: Encountered beta<0, resetting CG.
FluidMinimize: Converged (|Delta G|<1.000000e-05 for 2 iters).

Fluid minimization # 2 changed total free energy by -3.548679e-10 at t[s]:   8944.95

-------------------- Electronic Minimization # 2 ---------------------
	FillingsUpdate:  mu: -0.173600000  nElectrons: 339.269177
ElecMinimize: Iter:   0  G: -1761.053578977134293  |grad|_K:  4.828e-05  alpha:  1.000e+00
	FillingsUpdate:  mu: -0.173600000  nElectrons: 339.007244
	SubspaceRotationAdjust: set factor to 0.0178
ElecMinimize: Iter:   1  G: -1761.071714859155009  |grad|_K:  4.956e-06  alpha:  1.377e-01  linmin: -9.783e-02  t[s]:   9580.01
	FillingsUpdate:  mu: -0.173600000  nElectrons: 338.970160
	SubspaceRotationAdjust: set factor to 0.0103
ElecMinimize: Iter:   2  G: -1761.072028641276574  |grad|_K:  2.685e-06  alpha:  2.256e-01  linmin:  3.158e-03  t[s]:  10024.68
	FillingsUpdate:  mu: -0.173600000  nElectrons: 338.971114
	SubspaceRotationAdjust: set factor to 0.0149
ElecMinimize: Iter:   3  G: -1761.072132217582066  |grad|_K:  1.172e-06  alpha:  2.716e-01  linmin: -2.125e-06  t[s]:  10471.36
	FillingsUpdate:  mu: -0.173600000  nElectrons: 338.973443
	SubspaceRotationAdjust: set factor to 0.0151
ElecMinimize: Iter:   4  G: -1761.072159157907436  |grad|_K:  7.728e-07  alpha:  3.665e-01  linmin: -2.354e-04  t[s]:  10914.00
	FillingsUpdate:  mu: -0.173600000  nElectrons: 338.970190
	SubspaceRotationAdjust: set factor to 0.0175
ElecMinimize: Iter:   5  G: -1761.072171193781969  |grad|_K:  5.369e-07  alpha:  3.766e-01  linmin:  9.426e-05  t[s]:  11361.27
	FillingsUpdate:  mu: -0.173600000  nElectrons: 338.970042
	SubspaceRotationAdjust: set factor to 0.0221
ElecMinimize: Iter:   6  G: -1761.072178755397999  |grad|_K:  4.698e-07  alpha:  4.907e-01  linmin: -7.396e-06  t[s]:  11810.95
	FillingsUpdate:  mu: -0.173600000  nElectrons: 338.971342
	SubspaceRotationAdjust: set factor to 0.0239
ElecMinimize: Iter:   7  G: -1761.072184462274436  |grad|_K:  4.415e-07  alpha:  4.834e-01  linmin: -3.302e-05  t[s]:  12255.63
ElecMinimize: Converged (|Delta G|<1.000000e-05 for 2 iters).
Setting wave functions to eigenvectors of Hamiltonian

Electronic minimization # 2 changed total free energy by -1.384521e-05 at t[s]:  12276.69

---------------------- Fluid Minimization # 3 -----------------------
FluidMinimize: Iter:   0  G: -0.004422286349588  |grad|_K:  2.352e-04  alpha:  1.000e+00
FluidMinimize: Iter:   1  G: -0.004422286356772  |grad|_K:  2.352e-04  alpha:  6.710e-11  linmin: -1.453e-01  cgtest:  1.000e+00  t[s]:  12277.58
FluidMinimize: Encountered beta<0, resetting CG.
FluidMinimize: Iter:   2  G: -0.004422286363955  |grad|_K:  2.352e-04  alpha:  6.710e-11  linmin: -1.453e-01  cgtest:  1.000e+00  t[s]:  12278.14
FluidMinimize: Encountered beta<0, resetting CG.
FluidMinimize: Converged (|Delta G|<1.384521e-07 for 2 iters).

Fluid minimization # 3 changed total free energy by -1.436648e-11 at t[s]:  12278.45

-------------------- Electronic Minimization # 3 ---------------------
	FillingsUpdate:  mu: -0.173600000  nElectrons: 338.596572
ElecMinimize: Iter:   0  G: -1761.041741049338498  |grad|_K:  7.066e-05  alpha:  1.000e+00
	FillingsUpdate:  mu: -0.173600000  nElectrons: 338.982629
	SubspaceRotationAdjust: set factor to 0.00929
ElecMinimize: Iter:   1  G: -1761.070007623914989  |grad|_K:  1.183e-05  alpha:  1.337e-01  linmin:  8.208e-02  t[s]:  12905.78
	FillingsUpdate:  mu: -0.173600000  nElectrons: 338.937495
	SubspaceRotationAdjust: set factor to 0.00382
ElecMinimize: Iter:   2  G: -1761.071663116336140  |grad|_K:  3.246e-06  alpha:  2.594e-01  linmin:  6.519e-02  t[s]:  13348.54
	FillingsUpdate:  mu: -0.173600000  nElectrons: 338.957722
	SubspaceRotationAdjust: set factor to 0.00578
ElecMinimize: Iter:   3  G: -1761.071884099004592  |grad|_K:  1.862e-06  alpha:  4.230e-01  linmin:  5.583e-03  t[s]:  13790.12
	FillingsUpdate:  mu: -0.173600000  nElectrons: 338.964666
	SubspaceRotationAdjust: set factor to 0.00679
ElecMinimize: Iter:   4  G: -1761.071947698753320  |grad|_K:  9.771e-07  alpha:  3.506e-01  linmin: -2.458e-03  t[s]:  14234.48
	FillingsUpdate:  mu: -0.173600000  nElectrons: 338.965932
	SubspaceRotationAdjust: set factor to 0.00891
ElecMinimize: Iter:   5  G: -1761.071979542326289  |grad|_K:  8.892e-07  alpha:  6.203e-01  linmin:  2.874e-04  t[s]:  14681.94
	FillingsUpdate:  mu: -0.173600000  nElectrons: 338.967044
	SubspaceRotationAdjust: set factor to 0.0109
ElecMinimize: Iter:   6  G: -1761.072013238757563  |grad|_K:  9.901e-07  alpha:  7.979e-01  linmin: -5.575e-05  t[s]:  15121.93
	FillingsUpdate:  mu: -0.173600000  nElectrons: 338.967804
	SubspaceRotationAdjust: set factor to 0.0122
ElecMinimize: Iter:   7  G: -1761.072055791536741  |grad|_K:  1.129e-06  alpha:  8.113e-01  linmin: -1.786e-05  t[s]:  15570.24
	FillingsUpdate:  mu: -0.173600000  nElectrons: 338.966504
	SubspaceRotationAdjust: set factor to 0.0132
ElecMinimize: Iter:   8  G: -1761.072103843221839  |grad|_K:  1.073e-06  alpha:  7.048e-01  linmin:  8.808e-05  t[s]:  16019.78
	FillingsUpdate:  mu: -0.173600000  nElectrons: 338.966381
	SubspaceRotationAdjust: set factor to 0.015
ElecMinimize: Iter:   9  G: -1761.072137190061540  |grad|_K:  8.644e-07  alpha:  5.427e-01  linmin: -4.381e-05  t[s]:  16456.35
	FillingsUpdate:  mu: -0.173600000  nElectrons: 338.964889
	SubspaceRotationAdjust: set factor to 0.019
ElecMinimize: Iter:  10  G: -1761.072159445625630  |grad|_K:  6.961e-07  alpha:  5.567e-01  linmin:  1.377e-05  t[s]:  16896.77
	FillingsUpdate:  mu: -0.173600000  nElectrons: 338.966426
	SubspaceRotationAdjust: set factor to 0.0235
ElecMinimize: Iter:  11  G: -1761.072174516814130  |grad|_K:  5.951e-07  alpha:  5.817e-01  linmin: -3.258e-06  t[s]:  17334.25
	FillingsUpdate:  mu: -0.173600000  nElectrons: 338.967226
	SubspaceRotationAdjust: set factor to 0.0284
ElecMinimize: Iter:  12  G: -1761.072185667770782  |grad|_K:  4.975e-07  alpha:  5.888e-01  linmin: -5.848e-05  t[s]:  17784.91
	FillingsUpdate:  mu: -0.173600000  nElectrons: 338.968416
	SubspaceRotationAdjust: set factor to 0.0311
ElecMinimize: Iter:  13  G: -1761.072192405894612  |grad|_K:  3.871e-07  alpha:  5.086e-01  linmin:  2.019e-06  t[s]:  18234.02
	FillingsUpdate:  mu: -0.173600000  nElectrons: 338.970192
	SubspaceRotationAdjust: set factor to 0.0328
ElecMinimize: Iter:  14  G: -1761.072196177020714  |grad|_K:  3.205e-07  alpha:  4.706e-01  linmin: -8.443e-06  t[s]:  18680.46
	FillingsUpdate:  mu: -0.173600000  nElectrons: 338.968567
	SubspaceRotationAdjust: set factor to 0.0261
ElecMinimize: Iter:  15  G: -1761.072197692556074  |grad|_K:  3.084e-07  alpha:  2.759e-01  linmin: -5.950e-06  t[s]:  19124.74
	FillingsUpdate:  mu: -0.173600000  nElectrons: 338.970174
	SubspaceRotationAdjust: set factor to 0.0253
ElecMinimize: Iter:  16  G: -1761.072199247337949  |grad|_K:  2.055e-07  alpha:  3.056e-01  linmin: -5.227e-06  t[s]:  19565.34
	FillingsUpdate:  mu: -0.173600000  nElectrons: 338.970124
	SubspaceRotationAdjust: set factor to 0.0312
ElecMinimize: Iter:  17  G: -1761.072200427882080  |grad|_K:  1.783e-07  alpha:  5.229e-01  linmin:  2.454e-05  t[s]:  20006.96
	FillingsUpdate:  mu: -0.173600000  nElectrons: 338.969890
	SubspaceRotationAdjust: set factor to 0.0374
ElecMinimize: Iter:  18  G: -1761.072201386900815  |grad|_K:  1.555e-07  alpha:  5.650e-01  linmin:  9.237e-05  t[s]:  20455.21
	FillingsUpdate:  mu: -0.173600000  nElectrons: 338.970114
	SubspaceRotationAdjust: set factor to 0.0386
ElecMinimize: Iter:  19  G: -1761.072202109327691  |grad|_K:  1.468e-07  alpha:  5.598e-01  linmin: -4.003e-06  t[s]:  20897.10
	FillingsUpdate:  mu: -0.173600000  nElectrons: 338.969192
	SubspaceRotationAdjust: set factor to 0.0294
ElecMinimize: Iter:  20  G: -1761.072202395059094  |grad|_K:  1.508e-07  alpha:  2.479e-01  linmin: -2.139e-05  t[s]:  21334.53
	FillingsUpdate:  mu: -0.173600000  nElectrons: 338.969674
	SubspaceRotationAdjust: set factor to 0.0236
ElecMinimize: Iter:  21  G: -1761.072202700128855  |grad|_K:  9.240e-08  alpha:  2.508e-01  linmin: -5.501e-05  t[s]:  21779.26
	FillingsUpdate:  mu: -0.173600000  nElectrons: 338.969438
	SubspaceRotationAdjust: set factor to 0.0285
ElecMinimize: Iter:  22  G: -1761.072202911401973  |grad|_K:  7.015e-08  alpha:  4.664e-01  linmin:  3.502e-04  t[s]:  22217.13
	FillingsUpdate:  mu: -0.173600000  nElectrons: 338.969157
	SubspaceRotationAdjust: set factor to 0.0292
ElecMinimize: Iter:  23  G: -1761.072203029662887  |grad|_K:  6.163e-08  alpha:  4.546e-01  linmin:  1.678e-04  t[s]:  22662.42
	FillingsUpdate:  mu: -0.173600000  nElectrons: 338.969491
	SubspaceRotationAdjust: set factor to 0.0252
ElecMinimize: Iter:  24  G: -1761.072203092232485  |grad|_K:  6.111e-08  alpha:  3.094e-01  linmin:  9.443e-05  t[s]:  23110.81
ElecMinimize: Converged (|Delta G|<1.384521e-07 for 2 iters).
Setting wave functions to eigenvectors of Hamiltonian

Electronic minimization # 3 changed total free energy by -1.862994e-05 at t[s]:  23130.85

---------------------- Fluid Minimization # 4 -----------------------
FluidMinimize: Iter:   0  G: -0.004219313012552  |grad|_K:  2.393e-04  alpha:  1.000e+00
FluidMinimize: Iter:   1  G: -0.004219313021596  |grad|_K:  2.393e-04  alpha:  8.158e-11  linmin: -1.483e-01  cgtest:  1.000e+00  t[s]:  23131.71
FluidMinimize: Encountered beta<0, resetting CG.
FluidMinimize: Iter:   2  G: -0.004219313030641  |grad|_K:  2.393e-04  alpha:  8.158e-11  linmin: -1.483e-01  cgtest:  1.000e+00  t[s]:  23132.28
FluidMinimize: Encountered beta<0, resetting CG.
FluidMinimize: Converged (|Delta G|<1.862994e-07 for 2 iters).

Fluid minimization # 4 changed total free energy by -1.808965e-11 at t[s]:  23132.58

-------------------- Electronic Minimization # 4 ---------------------
	FillingsUpdate:  mu: -0.173600000  nElectrons: 338.906492
ElecMinimize: Iter:   0  G: -1761.071343834008303  |grad|_K:  1.140e-05  alpha:  1.000e+00
	FillingsUpdate:  mu: -0.173600000  nElectrons: 338.967766
	SubspaceRotationAdjust: set factor to 0.01
ElecMinimize: Iter:   1  G: -1761.072182099642760  |grad|_K:  9.591e-07  alpha:  1.254e-01  linmin:  3.875e-02  t[s]:  23758.17
	FillingsUpdate:  mu: -0.173600000  nElectrons: 338.966114
	SubspaceRotationAdjust: set factor to 0.00852
ElecMinimize: Iter:   2  G: -1761.072195402554371  |grad|_K:  3.659e-07  alpha:  2.792e-01  linmin:  2.170e-03  t[s]:  24204.92
	FillingsUpdate:  mu: -0.173600000  nElectrons: 338.969118
	SubspaceRotationAdjust: set factor to 0.0101
ElecMinimize: Iter:   3  G: -1761.072199068763894  |grad|_K:  1.878e-07  alpha:  5.129e-01  linmin: -6.831e-04  t[s]:  24658.00
	FillingsUpdate:  mu: -0.173600000  nElectrons: 338.969687
	SubspaceRotationAdjust: set factor to 0.013
ElecMinimize: Iter:   4  G: -1761.072200039270456  |grad|_K:  1.506e-07  alpha:  5.134e-01  linmin:  9.295e-05  t[s]:  25107.24
	FillingsUpdate:  mu: -0.173600000  nElectrons: 338.969127
	SubspaceRotationAdjust: set factor to 0.0158
ElecMinimize: Iter:   5  G: -1761.072200897442372  |grad|_K:  1.341e-07  alpha:  7.082e-01  linmin: -7.910e-05  t[s]:  25552.70
	FillingsUpdate:  mu: -0.173600000  nElectrons: 338.969265
	SubspaceRotationAdjust: set factor to 0.0181
ElecMinimize: Iter:   6  G: -1761.072201803367079  |grad|_K:  1.364e-07  alpha:  9.409e-01  linmin:  1.661e-05  t[s]:  26000.85
	FillingsUpdate:  mu: -0.173600000  nElectrons: 338.969274
	SubspaceRotationAdjust: set factor to 0.02
ElecMinimize: Iter:   7  G: -1761.072202439225293  |grad|_K:  1.235e-07  alpha:  6.397e-01  linmin: -6.381e-06  t[s]:  26453.13
	FillingsUpdate:  mu: -0.173600000  nElectrons: 338.968653
	SubspaceRotationAdjust: set factor to 0.0205
ElecMinimize: Iter:   8  G: -1761.072202830323931  |grad|_K:  9.300e-08  alpha:  4.798e-01  linmin:  7.474e-07  t[s]:  26900.38
	FillingsUpdate:  mu: -0.173600000  nElectrons: 338.969042
	SubspaceRotationAdjust: set factor to 0.0192
ElecMinimize: Iter:   9  G: -1761.072203050148573  |grad|_K:  7.621e-08  alpha:  4.761e-01  linmin:  8.174e-07  t[s]:  27349.31
	FillingsUpdate:  mu: -0.173600000  nElectrons: 338.968691
	SubspaceRotationAdjust: set factor to 0.0169
ElecMinimize: Iter:  10  G: -1761.072203177991014  |grad|_K:  5.654e-08  alpha:  4.112e-01  linmin:  1.934e-04  t[s]:  27790.63
	FillingsUpdate:  mu: -0.173600000  nElectrons: 338.968972
	SubspaceRotationAdjust: set factor to 0.017
ElecMinimize: Iter:  11  G: -1761.072203256655712  |grad|_K:  4.318e-08  alpha:  4.627e-01  linmin: -8.047e-05  t[s]:  28237.12
ElecMinimize: Converged (|Delta G|<1.862994e-07 for 2 iters).
Setting wave functions to eigenvectors of Hamiltonian

Electronic minimization # 4 changed total free energy by -1.644050e-07 at t[s]:  28256.52

Fluid<-->Electron self-consistency loop converged to 1.000000e-05 hartrees after 4 minimization pairs at t[s]:  28256.52.

# Ionic positions in lattice coordinates:
ion O   0.739317096179486   0.488624221977643   0.302494796406352 1
ion O   0.409336724764607   0.654346932648383   0.301422990723604 1
ion C   0.502420959253616   0.502245013290545   0.277873912120677 1
ion H   0.390611926214176   0.386924569098334   0.291467012360904 1
ion H   0.795841861815596   0.378383933894279   0.277232743011254 1
ion H   0.246249670779348   0.660043899866952   0.275873030629044 1
ion Pt   0.000000000000000   0.000000000000000  -0.155941670000000 0
ion Pt   0.500000000000000   0.500000000000000  -0.155941670000000 0
ion Pt   0.000000000000000   0.500000000000000  -0.155941670000000 0
ion Pt   0.500000000000000   0.000000000000000  -0.155941670000000 0
ion Pt   0.750000000000000   0.250000000000000  -0.077970830000000 0
ion Pt   0.250000000000000   0.750000000000000  -0.077970830000000 0
ion Pt   0.250000000000000   0.250000000000000  -0.077970830000000 0
ion Pt   0.750000000000000   0.750000000000000  -0.077970830000000 0
ion Pt   0.499917545142280   0.000088333104543   0.002229007882956 1
ion Pt  -0.000239693238248   0.000314485253265   0.002212926547824 1
ion Pt   0.001511431671262   0.499701392531981   0.002386315691324 1
ion Pt   0.501643887017762   0.500218225276001  -0.000150037703143 1
ion Pt   0.749653314890753   0.248169786079780   0.091956014125748 1
ion Pt   0.248571782958870   0.752521857719126   0.091349010673068 1
ion Pt   0.247991574762651   0.247752549049481   0.091807250311548 1
ion Pt   0.749165976839204   0.751827863339843   0.091491381174293 1
ion Pt  -0.000399421648204  -0.000129798422830   0.161646338795673 1
ion Pt  -0.004184522331469   0.501903070447570   0.159187866557621 1
ion Pt   0.499705524512288  -0.000468678477754   0.161217029512483 1
ion Pt   0.493790176438137   0.498612094054708   0.155745236462053 1


# Forces in Lattice coordinates:
force O  -0.010414674066078  -0.144584824278096   0.014168964858044 1
force O  -0.020901301529631   0.015788121725322   0.264596372406896 1
force C   0.044556363080776  -0.053266533784339  -0.087271776565109 1
force H   0.017566554554771   0.031064314555938   0.122156733952239 1
force H  -0.001455558519191   0.049598251323481   0.368810468987776 1
force H   0.014082472541462   0.056003438758408   0.124662908129277 1
force Pt  -0.001009128905091  -0.001339346731037   0.071451704016925 0
force Pt  -0.005592288028218  -0.001896411768580  -0.323871288985037 0
force Pt   0.002823183672583   0.001043967307449   0.089043354499438 0
force Pt  -0.000875370708211   0.000734488134149   0.074260450884029 0
force Pt   0.004725683793153  -0.005668724383872  -0.551615956586693 0
force Pt  -0.002865379991193   0.005967560634166  -0.565983999186823 0
force Pt   0.000359929637609  -0.004208802026499  -0.557702176659447 0
force Pt   0.007935155426097   0.007937849983468  -0.567103295593283 0
force Pt   0.000332551506764   0.001203822424612   0.158685757849901 1
force Pt  -0.001598040619985   0.000654066069056   0.171246136712457 1
force Pt   0.000923244956827  -0.000058153666620   0.127156032398270 1
force Pt   0.003489269003049  -0.000440842796079   0.219364539636277 1
force Pt  -0.007436662824179  -0.004631211330756  -0.055647976756777 1
force Pt  -0.005025228176823   0.007564969790898  -0.073299264242738 1
force Pt  -0.009978509979009  -0.008942458105150  -0.066530198561604 1
force Pt  -0.012891158937773   0.003905729854987  -0.072172026611108 1
force Pt  -0.007398453914541  -0.005470132015014   0.230337710252970 1
force Pt  -0.005676014944100  -0.001354032872238   0.152791143688221 1
force Pt  -0.003956645140721   0.006581943323296   0.226921052607688 1
force Pt   0.000527267968291   0.000577846013995   0.503514201687149 1

# Energy components:
   A_diel =       -0.0041257452116573
   Eewald =    13232.2308631495307054
       EH =    14843.0606414162411966
     Eloc =   -30217.7007003052094660
      Enl =      -15.6268336915104129
      Exc =     -576.2939306015329066
 Exc_core =      324.9917372532692070
       KE =      589.6602110139741626
  MuShift =        0.0010697584872706
-------------------------------------
     Etot =    -1819.6810677519604269
       TS =        0.2361490267894444
-------------------------------------
        F =    -1819.9172167787498893
      muN =      -58.8450135220940993
-------------------------------------
        G =    -1761.0722032566557118

IonicMinimize: Iter:   0  G: -1761.072203256655712  |grad|_K:  4.182e-03  t[s]:  28310.22
IonicMinimize: None of the convergence criteria satisfied after 0 iterations.

#--- Lowdin population analysis ---
# oxidation-state O -0.369 -0.376
# oxidation-state C +0.291
# oxidation-state H +0.234 +0.446 +0.432
# oxidation-state Pt +0.071 +0.062 +0.072 +0.071 -0.049 -0.048 -0.049 -0.047 +0.005 +0.003 +0.005 -0.025 -0.057 -0.059 -0.048 -0.042 +0.027 -0.055 +0.033 -0.067


Dumping '110_1-Solvated.ionpos' ... done
Dumping '110_1-Solvated.n' ... done
Dumping '110_1-Solvated.eigStats' ... 
	eMin: -2.127730 at state 0 ( [ +0.000000 +0.000000 +0.000000 ] spin 0 )
	HOMO: -0.173591 at state 4 ( [ +0.250000 +0.250000 +0.000000 ] spin 0 )
	mu  : -0.173600
	LUMO: -0.173527 at state 0 ( [ +0.000000 +0.000000 +0.000000 ] spin 0 )
	eMax: +0.353164 at state 9 ( [ +0.500000 +0.500000 +0.000000 ] spin 0 )
	HOMO-LUMO gap: +0.000064
	Optical gap  : +0.000166 at state 4 ( [ +0.250000 +0.250000 +0.000000 ] spin 0 )
Dumping '110_1-Solvated.Ecomponents' ... done
End date and time: Sat Apr 27 02:04:55 2019  (Duration: 0-7:52:57.45)
Done!
