--------------------------------------------------------------------------
Initialization of PSM library failed.

  Error: PSM is in the finalized state
--------------------------------------------------------------------------
[node2003][[15452,1],0][btl_openib.c:880:mca_btl_openib_add_procs] could not prepare openib device for use
--------------------------------------------------------------------------
The OpenFabrics (openib) BTL failed to initialize while trying to
allocate some locked memory.  This typically can indicate that the
memlock limits are set too low.  For most HPC installations, the
memlock limits should be set to "unlimited".  The failure occured
here:

  Local host:    node2003
  OMPI source:   btl_openib.c:753
  Function:      ompi_free_list_init_ex_new()
  Device:        qib0
  Memlock limit: 65536

You may need to consult with your system administrator to get this
problem fixed.  This FAQ entry on the Open MPI web site may also be
helpful:

    http://www.open-mpi.org/faq/?category=openfabrics#ib-locked-pages
--------------------------------------------------------------------------

*************** JDFTx 1.4.2 (git hash 74b6e54) ***************

Start date and time: Sat Apr 27 18:42:26 2019
Executable /home/jfm343/JDFTXDIR/build/jdftx with command-line: -i Vacuum.in
Running on hosts (process indices):  node2003.physics.cornell.edu (0)
Divided in process groups (process indices):  0 (0)
Resource initialization completed at t[s]:      0.00
Run totals: 1 processes, 12 threads, 0 GPUs


Input parsed successfully to the following command list (including defaults):

basis kpoint-dependent
coords-type Lattice
core-overlap-check vector
coulomb-interaction Slab 001
coulomb-truncation-embed 0 0 0
davidson-band-ratio 1.1
dump End State IonicPositions ElecDensity EigStats Ecomponents
dump-name 111_4-Vacuum.$VAR
elec-cutoff 20 100
elec-eigen-algo Davidson
elec-ex-corr gga-PBEsol
elec-smearing Fermi 0.01
electronic-minimize  \
	dirUpdateScheme      FletcherReeves \
	linminMethod         DirUpdateRecommended \
	nIterations          200 \
	history              15 \
	knormThreshold       0 \
	energyDiffThreshold  1e-08 \
	nEnergyDiff          2 \
	alphaTstart          1 \
	alphaTmin            1e-10 \
	updateTestStepSize   yes \
	alphaTreduceFactor   0.1 \
	alphaTincreaseFactor 3 \
	nAlphaAdjustMax      3 \
	wolfeEnergy          0.0001 \
	wolfeGradient        0.9 \
	fdTest               no
exchange-regularization WignerSeitzTruncated
fluid None
fluid-ex-corr lda-TF lda-PZ
fluid-gummel-loop 10 1.000000e-05
fluid-minimize  \
	dirUpdateScheme      PolakRibiere \
	linminMethod         DirUpdateRecommended \
	nIterations          100 \
	history              15 \
	knormThreshold       0 \
	energyDiffThreshold  0 \
	nEnergyDiff          2 \
	alphaTstart          1 \
	alphaTmin            1e-10 \
	updateTestStepSize   yes \
	alphaTreduceFactor   0.1 \
	alphaTincreaseFactor 3 \
	nAlphaAdjustMax      3 \
	wolfeEnergy          0.0001 \
	wolfeGradient        0.9 \
	fdTest               no
fluid-solvent H2O 55.338 ScalarEOS \
	epsBulk 78.4 \
	pMol 0.92466 \
	epsInf 1.77 \
	Pvap 1.06736e-10 \
	sigmaBulk 4.62e-05 \
	Rvdw 2.61727 \
	Res 1.42 \
	tauNuc 343133 \
	omegaEl 0.55124 \
	gammaEl 0.257245
forces-output-coords Positions
ion H   0.649000000000000   0.425000000000000   0.362000000000000 1
ion H   0.494000000000000   0.842000000000000   0.362000000000000 1
ion C   0.500000000000000   0.500000000000000   0.362000000000000 1
ion O   0.248000000000000   0.372000000000000   0.362000000000000 1
ion O   0.626000000000000   0.780000000000000   0.362000000000000 1
ion Pt   0.333300000000000   0.166700000000000  -0.200100000000000 0
ion Pt   0.333300000000000   0.666700000000000  -0.200100000000000 0
ion Pt   0.833300000000000   0.166700000000000  -0.200100000000000 0
ion Pt   0.833300000000000   0.666700000000000  -0.200100000000000 0
ion Pt   0.000000000000000   0.000000000000000  -0.100000000000000 0
ion Pt   0.000000000000000   0.500000000000000  -0.100000000000000 0
ion Pt   0.500000000000000   0.000000000000000  -0.100000000000000 0
ion Pt   0.500000000000000   0.500000000000000  -0.100000000000000 0
ion Pt   0.166700000000000   0.333300000000000   0.000000000000000 1
ion Pt   0.166700000000000   0.833300000000000   0.000000000000000 1
ion Pt   0.666700000000000   0.333300000000000   0.000000000000000 1
ion Pt   0.666700000000000   0.833300000000000   0.000000000000000 1
ion Pt   0.333300000000000   0.166700000000000   0.100000000000000 1
ion Pt   0.333300000000000   0.666700000000000   0.100000000000000 1
ion Pt   0.833300000000000   0.166700000000000   0.100000000000000 1
ion Pt   0.833300000000000   0.666700000000000   0.100000000000000 1
ion Pt   0.000000000000000   0.000000000000000   0.200100000000000 1
ion Pt   0.000000000000000   0.500000000000000   0.200100000000000 1
ion Pt   0.500000000000000   0.000000000000000   0.200100000000000 1
ion Pt   0.500000000000000   0.500000000000000   0.200100000000000 1
ion-species GBRV/$ID_pbesol.uspp
ion-width 0
ionic-minimize  \
	dirUpdateScheme      L-BFGS \
	linminMethod         DirUpdateRecommended \
	nIterations          5 \
	history              15 \
	knormThreshold       0.0001 \
	energyDiffThreshold  1e-06 \
	nEnergyDiff          2 \
	alphaTstart          1 \
	alphaTmin            1e-10 \
	updateTestStepSize   yes \
	alphaTreduceFactor   0.1 \
	alphaTincreaseFactor 3 \
	nAlphaAdjustMax      3 \
	wolfeEnergy          0.0001 \
	wolfeGradient        0.9 \
	fdTest               no
kpoint   0.000000000000   0.000000000000   0.000000000000  1.00000000000000
kpoint-folding 4 4 1 
latt-move-scale 1 1 1
latt-scale 1 1 1 
lattice Hexagonal 10.4793 42.7686
lattice-minimize  \
	dirUpdateScheme      L-BFGS \
	linminMethod         DirUpdateRecommended \
	nIterations          0 \
	history              15 \
	knormThreshold       0 \
	energyDiffThreshold  1e-06 \
	nEnergyDiff          2 \
	alphaTstart          1 \
	alphaTmin            1e-10 \
	updateTestStepSize   yes \
	alphaTreduceFactor   0.1 \
	alphaTincreaseFactor 3 \
	nAlphaAdjustMax      3 \
	wolfeEnergy          0.0001 \
	wolfeGradient        0.9 \
	fdTest               no
lcao-params -1 1e-06 0.01
pcm-variant GLSSA13
spintype no-spin
subspace-rotation-factor 1 yes
symmetries automatic
symmetry-threshold 0.0001



---------- Setting up symmetries ----------

Found 24 point-group symmetries of the bravais lattice
Found 1 space-group symmetries with basis
Applied RMS atom displacement 0 bohrs to make symmetries exact.

---------- Initializing the Grid ----------
R = 
[    10.4793   -5.23966          0  ]
[          0    9.07536          0  ]
[          0          0    42.7686  ]
unit cell volume = 4067.45
G =
[   0.599579   0.346167         -0  ]
[          0   0.692335          0  ]
[          0         -0   0.146911  ]
Minimum fftbox size, Smin = [  48  48  196  ]
Chosen fftbox size, S = [  48  48  196  ]

---------- Initializing tighter grid for wavefunction operations ----------
R = 
[    10.4793   -5.23966          0  ]
[          0    9.07536          0  ]
[          0          0    42.7686  ]
unit cell volume = 4067.45
G =
[   0.599579   0.346167         -0  ]
[          0   0.692335          0  ]
[          0         -0   0.146911  ]
Minimum fftbox size, Smin = [  44  44  176  ]
Chosen fftbox size, S = [  48  48  180  ]

---------- Exchange Correlation functional ----------
Initalized PBEsol GGA exchange.
Initalized PBEsol GGA correlation.

---------- Setting up pseudopotentials ----------
Width of ionic core gaussian charges (only for fluid interactions / plotting) set to 0

Reading pseudopotential file '/home/jfm343/JDFTXDIR/build/pseudopotentials/GBRV/h_pbesol.uspp':
  Title: H.  Created by USPP 7.3.6 on 22-9-15
  Reference state energy: -0.449841.  1 valence electrons in orbitals:
    |100>  occupation: 1  eigenvalue: -0.232690
  lMax: 0  lLocal: 1  QijEcut: 6
  2 projectors sampled on a log grid with 395 points:
    l: 0  eig: -0.232690  rCut: 1.2
    l: 0  eig: 1.000000  rCut: 1.2
  Transforming local potential to a uniform radial grid of dG=0.02 with 1615 points.
  Transforming nonlocal projectors to a uniform radial grid of dG=0.02 with 432 points.
  Transforming density augmentations to a uniform radial grid of dG=0.02 with 1615 points.
  Transforming atomic orbitals to a uniform radial grid of dG=0.02 with 432 points.
  Core radius for overlap checks: 1.20 bohrs.

Reading pseudopotential file '/home/jfm343/JDFTXDIR/build/pseudopotentials/GBRV/c_pbesol.uspp':
  Title: C.  Created by USPP 7.3.6 on 3-2-2014
  Reference state energy: -5.383511.  4 valence electrons in orbitals:
    |200>  occupation: 2  eigenvalue: -0.501126
    |210>  occupation: 2  eigenvalue: -0.192448
  lMax: 1  lLocal: 2  QijEcut: 5
  4 projectors sampled on a log grid with 503 points:
    l: 0  eig: -0.501126  rCut: 1.3
    l: 0  eig: 0.000000  rCut: 1.3
    l: 1  eig: -0.192448  rCut: 1.3
    l: 1  eig: 0.000000  rCut: 1.3
  Partial core density with radius 1.1
  Transforming core density to a uniform radial grid of dG=0.02 with 1615 points.
  Transforming local potential to a uniform radial grid of dG=0.02 with 1615 points.
  Transforming nonlocal projectors to a uniform radial grid of dG=0.02 with 432 points.
  Transforming density augmentations to a uniform radial grid of dG=0.02 with 1615 points.
  Transforming atomic orbitals to a uniform radial grid of dG=0.02 with 432 points.
  Core radius for overlap checks: 1.30 bohrs.

Reading pseudopotential file '/home/jfm343/JDFTXDIR/build/pseudopotentials/GBRV/o_pbesol.uspp':
  Title: O.  Created by USPP 7.3.6 on 3-2-2014
  Reference state energy: -15.849885.  6 valence electrons in orbitals:
    |200>  occupation: 2  eigenvalue: -0.873214
    |210>  occupation: 4  eigenvalue: -0.330058
  lMax: 2  lLocal: 2  QijEcut: 6
  5 projectors sampled on a log grid with 511 points:
    l: 0  eig: -0.873214  rCut: 1.25
    l: 0  eig: 0.000000  rCut: 1.25
    l: 1  eig: -0.330058  rCut: 1.25
    l: 1  eig: 0.000000  rCut: 1.25
    l: 2  eig: 1.000000  rCut: 1.25
  Partial core density with radius 0.7
  Transforming core density to a uniform radial grid of dG=0.02 with 1615 points.
  Transforming local potential to a uniform radial grid of dG=0.02 with 1615 points.
  Transforming nonlocal projectors to a uniform radial grid of dG=0.02 with 432 points.
  Transforming density augmentations to a uniform radial grid of dG=0.02 with 1615 points.
  Transforming atomic orbitals to a uniform radial grid of dG=0.02 with 432 points.
  Core radius for overlap checks: 1.25 bohrs.

Reading pseudopotential file '/home/jfm343/JDFTXDIR/build/pseudopotentials/GBRV/pt_pbesol.uspp':
  Title: Pt.  Created by USPP 7.3.6 on 22-9-15
  Reference state energy: -104.899005.  16 valence electrons in orbitals:
    |510>  occupation: 6  eigenvalue: -2.158847
    |520>  occupation: 9.5  eigenvalue: -0.336311
    |600>  occupation: 0  eigenvalue: -0.320324
    |610>  occupation: 0  eigenvalue: -0.119800
  lMax: 2  lLocal: 3  QijEcut: 5.5
  6 projectors sampled on a log grid with 745 points:
    l: 0  eig: -0.320324  rCut: 2.45
    l: 0  eig: 1.500000  rCut: 2.45
    l: 1  eig: -2.158847  rCut: 1.6
    l: 1  eig: -0.119800  rCut: 1.6
    l: 2  eig: -0.500000  rCut: 1.6
    l: 2  eig: -0.336311  rCut: 1.6
  Partial core density with radius 1.1
  Transforming core density to a uniform radial grid of dG=0.02 with 1615 points.
  Transforming local potential to a uniform radial grid of dG=0.02 with 1615 points.
  Transforming nonlocal projectors to a uniform radial grid of dG=0.02 with 432 points.
  Transforming density augmentations to a uniform radial grid of dG=0.02 with 1615 points.
  Transforming atomic orbitals to a uniform radial grid of dG=0.02 with 432 points.
  Core radius for overlap checks: 2.45 bohrs.

Initialized 4 species with 25 total atoms.

Folded 1 k-points by 4x4x1 to 16 k-points.

---------- Setting up k-points, bands, fillings ----------
Adding inversion symmetry to k-mesh for non-inversion-symmetric unit cell.
Reduced to 10 k-points under symmetry. 
Computing the number of bands and number of electrons
Calculating initial fillings.
nElectrons: 338.000000   nBands: 254   nStates: 10

----- Setting up reduced wavefunction bases (one per k-point) -----
average nbasis = 17373.562 , ideal nbasis = 17376.449

---------- Setting up coulomb interaction ----------
Setting up double-sized grid for truncated Coulomb potentials:
R = 
[    10.4793   -5.23966          0  ]
[          0    9.07536          0  ]
[          0          0    85.5372  ]
unit cell volume = 8134.9
G =
[   0.599579   0.346167         -0  ]
[          0   0.692335          0  ]
[          0         -0  0.0734556  ]
Chosen fftbox size, S = [  48  48  392  ]
Integer grid location selected as the embedding center:
   Grid: [  0  0  0  ]
   Lattice: [  0  0  0  ]
   Cartesian: [  0  0  0  ]
Constructing Wigner-Seitz cell: 8 faces (6 quadrilaterals, 2 hexagons)
Range-separation parameter for embedded mesh potentials due to point charges: 0.589462 bohrs.
Initialized slab truncation along lattice direction 001

---------- Setting up 2D ewald sum ----------
Optimum gaussian width for ewald sums = 5.817695 bohr.
Real space sums over 289 unit cells with max indices [  8  8  0  ]
Reciprocal space sums over 81 terms with max indices [  4  4  0  ]

---------- Allocating electronic variables ----------
Initializing wave functions:  linear combination of atomic orbitals
H pseudo-atom occupations:   s ( 1 )
C pseudo-atom occupations:   s ( 2 )  p ( 2 )
O pseudo-atom occupations:   s ( 2 )  p ( 4 )
Pt pseudo-atom occupations:   s ( 0 )  p ( 6 0 )  d ( 10 )
	FillingsUpdate:  mu: -3.089650758  nElectrons: 338.000000
LCAOMinimize: Iter:   0  F: -1803.0360959565193752  |grad|_K:  5.406e-02  alpha:  1.000e+00
LCAOMinimize: 	Step increased F by 1.297305e+03, reducing alpha to 1.465403e-02.
	FillingsUpdate:  mu: -1.174289967  nElectrons: 338.000000
LCAOMinimize: Iter:   1  F: -1803.8701614434569365  |grad|_K:  7.349e-02  alpha:  1.465e-02  linmin:  1.499e-01  cgtest: -5.856e-01  t[s]:    393.97
LCAOMinimize: 	Bad step direction: g.d > 0.
LCAOMinimize: 	Undoing step.
LCAOMinimize: 	Step failed: resetting search direction.
	FillingsUpdate:  mu: -1.174289967  nElectrons: 338.000000
LCAOMinimize: Iter:   2  F: -1803.8701614434714884  |grad|_K:  7.349e-02  alpha:  0.000e+00
	FillingsUpdate:  mu: -1.755923757  nElectrons: 338.000000
LCAOMinimize: Iter:   3  F: -1813.4001415089865077  |grad|_K:  1.079e-02  alpha:  4.841e-03  linmin: -1.279e-01  cgtest:  2.635e-01  t[s]:    553.13
LCAOMinimize: Encountered beta<0, resetting CG.
LCAOMinimize: 	Predicted alpha/alphaT>3.000000, increasing alphaT to 1.452169e-02.
LCAOMinimize: 	Predicted alpha/alphaT>3.000000, increasing alphaT to 4.356507e-02.
LCAOMinimize: 	Predicted alpha/alphaT>3.000000, increasing alphaT to 1.306952e-01.
LCAOMinimize: 	Step increased F by 1.133231e+02, reducing alpha to 2.111739e-02.
	FillingsUpdate:  mu: -1.303237327  nElectrons: 338.000000
LCAOMinimize: Iter:   4  F: -1815.0281646934870423  |grad|_K:  1.409e-02  alpha:  2.112e-02  linmin: -2.051e-01  cgtest:  2.319e-01  t[s]:    774.80
	FillingsUpdate:  mu: +0.137848456  nElectrons: 338.000000
LCAOMinimize: Iter:   5  F: -1816.2222422087747873  |grad|_K:  2.235e-02  alpha:  1.171e-02  linmin:  2.078e-02  cgtest: -3.692e-01  t[s]:    874.96
	FillingsUpdate:  mu: +0.181259858  nElectrons: 338.000000
LCAOMinimize: Iter:   6  F: -1816.4288513112801411  |grad|_K:  1.860e-02  alpha:  1.407e-03  linmin: -1.948e-02  cgtest:  9.847e-01  t[s]:    973.62
LCAOMinimize: Encountered beta<0, resetting CG.
LCAOMinimize: 	Predicted alpha/alphaT>3.000000, increasing alphaT to 4.219900e-03.
	FillingsUpdate:  mu: -0.027659049  nElectrons: 338.000000
LCAOMinimize: Iter:   7  F: -1817.1779949037477309  |grad|_K:  1.077e-02  alpha:  6.623e-03  linmin: -7.007e-03  cgtest:  1.152e-02  t[s]:   1099.43
	FillingsUpdate:  mu: -0.593064215  nElectrons: 338.000000
LCAOMinimize: Iter:   8  F: -1817.8517987613138303  |grad|_K:  3.696e-03  alpha:  1.868e-02  linmin:  8.756e-02  cgtest: -2.967e-01  t[s]:   1196.75
LCAOMinimize: 	Predicted alpha/alphaT>3.000000, increasing alphaT to 5.605215e-02.
	FillingsUpdate:  mu: -0.401760578  nElectrons: 338.000000
LCAOMinimize: Iter:   9  F: -1818.1087238100901686  |grad|_K:  7.301e-03  alpha:  6.949e-02  linmin: -5.180e-03  cgtest:  2.569e-01  t[s]:   1324.24
	FillingsUpdate:  mu: -0.444939227  nElectrons: 338.000000
LCAOMinimize: Iter:  10  F: -1818.2406672665679253  |grad|_K:  4.644e-03  alpha:  4.551e-03  linmin: -9.212e-02  cgtest:  8.523e-01  t[s]:   1421.40
LCAOMinimize: Encountered beta<0, resetting CG.
LCAOMinimize: 	Predicted alpha/alphaT>3.000000, increasing alphaT to 1.365224e-02.
	FillingsUpdate:  mu: -0.337104099  nElectrons: 338.000000
LCAOMinimize: Iter:  11  F: -1818.3668792180353648  |grad|_K:  5.022e-03  alpha:  1.824e-02  linmin:  7.516e-03  cgtest: -7.423e-03  t[s]:   1548.60
	FillingsUpdate:  mu: -0.305793790  nElectrons: 338.000000
LCAOMinimize: Iter:  12  F: -1818.4362676998605366  |grad|_K:  2.285e-03  alpha:  8.799e-03  linmin:  1.896e-04  cgtest:  7.535e-02  t[s]:   1648.82
LCAOMinimize: 	Predicted alpha/alphaT>3.000000, increasing alphaT to 2.639563e-02.
LCAOMinimize: 	Predicted alpha/alphaT>3.000000, increasing alphaT to 7.918690e-02.
	FillingsUpdate:  mu: -0.294129823  nElectrons: 338.000000
LCAOMinimize: Iter:  13  F: -1818.6179855661227975  |grad|_K:  3.770e-03  alpha:  1.087e-01  linmin:  4.118e-03  cgtest:  9.102e-04  t[s]:   1800.15
	FillingsUpdate:  mu: -0.321891817  nElectrons: 338.000000
LCAOMinimize: Iter:  14  F: -1818.6382590467119371  |grad|_K:  2.830e-03  alpha:  2.678e-03  linmin: -8.345e-02  cgtest:  9.437e-01  t[s]:   1901.03
LCAOMinimize: Encountered beta<0, resetting CG.
LCAOMinimize: 	Predicted alpha/alphaT>3.000000, increasing alphaT to 8.034672e-03.
	FillingsUpdate:  mu: -0.271096452  nElectrons: 338.000000
LCAOMinimize: Iter:  15  F: -1818.6710043400375980  |grad|_K:  3.083e-03  alpha:  1.259e-02  linmin:  7.136e-04  cgtest:  3.005e-03  t[s]:   2022.44
	FillingsUpdate:  mu: -0.224631010  nElectrons: 338.000000
LCAOMinimize: Iter:  16  F: -1818.7219774646423502  |grad|_K:  1.598e-03  alpha:  1.670e-02  linmin:  1.096e-02  cgtest: -1.237e-01  t[s]:   2121.26
LCAOMinimize: 	Predicted alpha/alphaT>3.000000, increasing alphaT to 5.011067e-02.
	FillingsUpdate:  mu: -0.233055297  nElectrons: 338.000000
LCAOMinimize: Iter:  17  F: -1818.7618787687431450  |grad|_K:  2.126e-03  alpha:  4.981e-02  linmin:  1.820e-03  cgtest:  1.457e-02  t[s]:   2244.17
	FillingsUpdate:  mu: -0.241552007  nElectrons: 338.000000
LCAOMinimize: Iter:  18  F: -1818.7756698152841182  |grad|_K:  1.913e-03  alpha:  1.060e-02  linmin:  1.038e-02  cgtest: -1.182e-01  t[s]:   2343.05
LCAOMinimize: 	Predicted alpha/alphaT>3.000000, increasing alphaT to 3.181270e-02.
	FillingsUpdate:  mu: -0.272793029  nElectrons: 338.000000
LCAOMinimize: Iter:  19  F: -1818.8385126414000297  |grad|_K:  2.306e-03  alpha:  5.919e-02  linmin:  1.430e-03  cgtest:  3.742e-01  t[s]:   2467.08
	FillingsUpdate:  mu: -0.188213340  nElectrons: 338.000000
LCAOMinimize: Iter:  20  F: -1818.8971893237328459  |grad|_K:  5.553e-04  alpha:  3.253e-02  linmin: -2.028e-02  cgtest:  3.246e-01  t[s]:   2565.83
LCAOMinimize: Encountered beta<0, resetting CG.
	FillingsUpdate:  mu: -0.192434415  nElectrons: 338.000000
LCAOMinimize: Iter:  21  F: -1818.9012865781339769  |grad|_K:  1.111e-03  alpha:  3.999e-02  linmin: -6.871e-03  cgtest:  6.075e-02  t[s]:   2663.76
	FillingsUpdate:  mu: -0.214878809  nElectrons: 338.000000
LCAOMinimize: Iter:  22  F: -1818.9063285338006608  |grad|_K:  3.643e-04  alpha:  1.060e-02  linmin: -2.513e-02  cgtest: -5.497e-01  t[s]:   2762.33
	FillingsUpdate:  mu: -0.226759733  nElectrons: 338.000000
LCAOMinimize: Iter:  23  F: -1818.9080493895519339  |grad|_K:  3.529e-04  alpha:  2.968e-02  linmin: -1.379e-02  cgtest: -8.166e-02  t[s]:   2862.04
	FillingsUpdate:  mu: -0.233666829  nElectrons: 338.000000
LCAOMinimize: Iter:  24  F: -1818.9088521182802651  |grad|_K:  4.318e-04  alpha:  1.626e-02  linmin: -1.810e-04  cgtest: -2.146e-01  t[s]:   2957.55
	FillingsUpdate:  mu: -0.251221590  nElectrons: 338.000000
LCAOMinimize: Iter:  25  F: -1818.9101466601953234  |grad|_K:  2.372e-04  alpha:  2.080e-02  linmin: -4.388e-03  cgtest:  9.214e-01  t[s]:   3054.55
LCAOMinimize: Encountered beta<0, resetting CG.
	FillingsUpdate:  mu: -0.250983758  nElectrons: 338.000000
LCAOMinimize: Iter:  26  F: -1818.9102805623856511  |grad|_K:  1.695e-04  alpha:  7.316e-03  linmin: -1.012e-04  cgtest:  3.107e-04  t[s]:   3151.54
LCAOMinimize: 	Predicted alpha/alphaT>3.000000, increasing alphaT to 2.194677e-02.
	FillingsUpdate:  mu: -0.246590195  nElectrons: 338.000000
LCAOMinimize: Iter:  27  F: -1818.9107392481789702  |grad|_K:  9.204e-05  alpha:  4.907e-02  linmin: -3.303e-04  cgtest: -1.757e-03  t[s]:   3272.34
	FillingsUpdate:  mu: -0.249578224  nElectrons: 338.000000
LCAOMinimize: Iter:  28  F: -1818.9110343194083725  |grad|_K:  1.302e-04  alpha:  1.071e-01  linmin:  1.398e-04  cgtest: -1.027e-03  t[s]:   3369.61
	FillingsUpdate:  mu: -0.240864710  nElectrons: 338.000000
LCAOMinimize: Iter:  29  F: -1818.9113069347877172  |grad|_K:  5.114e-05  alpha:  4.871e-02  linmin: -2.580e-03  cgtest:  8.269e-02  t[s]:   3468.62
	FillingsUpdate:  mu: -0.240752703  nElectrons: 338.000000
LCAOMinimize: Iter:  30  F: -1818.9113138114796584  |grad|_K:  4.218e-05  alpha:  8.014e-03  linmin: -1.157e-04  cgtest: -9.186e-03  t[s]:   3564.63
LCAOMinimize: None of the convergence criteria satisfied after 30 iterations.


---- Citations for features of the code used in this run ----

   Software package:
      R. Sundararaman, K. Letchworth-Weaver, K.A. Schwarz, D. Gunceler, Y. Ozhabes and T.A. Arias, 'JDFTx: software for joint density-functional theory', SoftwareX 6, 278 (2017)

   gga-PBEsol exchange-correlation functional:
      J.P. Perdew et al., Phys. Rev. Lett. 100, 136406 (2008)

   Pseudopotentials:
      KF Garrity, JW Bennett, KM Rabe and D Vanderbilt, Comput. Mater. Sci. 81, 446 (2014)

   Truncated Coulomb potentials:
      R. Sundararaman and T.A. Arias, Phys. Rev. B 87, 165122 (2013)

   Total energy minimization with Auxiliary Hamiltonian:
      C. Freysoldt, S. Boeck, and J. Neugebauer, Phys. Rev. B 79, 241103(R) (2009)

This list may not be complete. Please suggest additional citations or
report any other bugs at https://github.com/shankar1729/jdftx/issues

Initialization completed successfully at t[s]:   3645.00


-------- Electronic minimization -----------
	FillingsUpdate:  mu: -0.240752703  nElectrons: 338.000000
ElecMinimize: Iter:   0  F: -1818.911313811495347  |grad|_K:  1.598e-04  alpha:  1.000e+00
	FillingsUpdate:  mu: -0.160064423  nElectrons: 338.000000
	SubspaceRotationAdjust: set factor to 0.548
ElecMinimize: Iter:   1  F: -1819.392648876485055  |grad|_K:  2.281e-04  alpha:  4.308e-01  linmin:  1.007e-04  t[s]:   4207.06
	FillingsUpdate:  mu: -0.168669045  nElectrons: 338.000000
	SubspaceRotationAdjust: set factor to 0.236
ElecMinimize: Iter:   2  F: -1819.398482672327191  |grad|_K:  1.601e-04  alpha:  9.014e-03  linmin:  3.927e-03  t[s]:   4581.93
ElecMinimize: 	Predicted alpha/alphaT>3.000000, increasing alphaT to 2.704181e-02.
ElecMinimize: 	Predicted alpha/alphaT>3.000000, increasing alphaT to 8.112542e-02.
	FillingsUpdate:  mu: -0.205137892  nElectrons: 338.000000
	SubspaceRotationAdjust: set factor to 0.234
ElecMinimize: Iter:   3  F: -1819.443351288251733  |grad|_K:  9.335e-05  alpha:  1.333e-01  linmin: -4.375e-07  t[s]:   5144.06
	FillingsUpdate:  mu: -0.197546947  nElectrons: 338.000000
	SubspaceRotationAdjust: set factor to 0.158
ElecMinimize: Iter:   4  F: -1819.458381565451191  |grad|_K:  8.821e-05  alpha:  3.849e-02  linmin: -3.131e-05  t[s]:   5525.70
ElecMinimize: 	Predicted alpha/alphaT>3.000000, increasing alphaT to 1.154637e-01.
	FillingsUpdate:  mu: -0.170382898  nElectrons: 338.000000
	SubspaceRotationAdjust: set factor to 0.151
ElecMinimize: Iter:   5  F: -1819.510001068294059  |grad|_K:  4.373e-05  alpha:  1.484e-01  linmin:  1.258e-05  t[s]:   6003.77
	FillingsUpdate:  mu: -0.185659929  nElectrons: 338.000000
	SubspaceRotationAdjust: set factor to 0.0928
	SubspaceRotationAdjust: resetting CG because factor has changed by 0.0927859
ElecMinimize: 	State modified externally: resetting search direction.
ElecMinimize: Iter:   6  F: -1819.520048331979751  |grad|_K:  4.509e-05  alpha:  1.185e-01
	FillingsUpdate:  mu: -0.203420910  nElectrons: 338.000000
	SubspaceRotationAdjust: set factor to 0.137
ElecMinimize: Iter:   7  F: -1819.525707767621725  |grad|_K:  2.292e-05  alpha:  6.270e-02  linmin:  5.076e-05  t[s]:   6920.67
ElecMinimize: 	Predicted alpha/alphaT>3.000000, increasing alphaT to 1.880917e-01.
	FillingsUpdate:  mu: -0.217379680  nElectrons: 338.000000
	SubspaceRotationAdjust: set factor to 0.134
ElecMinimize: Iter:   8  F: -1819.532448921252808  |grad|_K:  1.361e-05  alpha:  2.890e-01  linmin:  4.510e-08  t[s]:   7398.10
	FillingsUpdate:  mu: -0.198667941  nElectrons: 338.000000
	SubspaceRotationAdjust: set factor to 0.105
ElecMinimize: Iter:   9  F: -1819.536141361167665  |grad|_K:  1.270e-05  alpha:  4.490e-01  linmin:  1.450e-05  t[s]:   7777.05
	FillingsUpdate:  mu: -0.202395471  nElectrons: 338.000000
	SubspaceRotationAdjust: set factor to 0.064
ElecMinimize: Iter:  10  F: -1819.537281042889390  |grad|_K:  1.724e-05  alpha:  1.593e-01  linmin:  4.015e-06  t[s]:   8164.67
	FillingsUpdate:  mu: -0.216748331  nElectrons: 338.000000
	SubspaceRotationAdjust: set factor to 0.0545
ElecMinimize: Iter:  11  F: -1819.538972693639835  |grad|_K:  9.506e-06  alpha:  1.281e-01  linmin:  2.802e-06  t[s]:   8550.55
ElecMinimize: 	Predicted alpha/alphaT>3.000000, increasing alphaT to 3.842627e-01.
	FillingsUpdate:  mu: -0.211141806  nElectrons: 338.000000
	SubspaceRotationAdjust: set factor to 0.0415
ElecMinimize: Iter:  12  F: -1819.541012754508301  |grad|_K:  1.088e-05  alpha:  5.093e-01  linmin:  3.956e-05  t[s]:   9026.24
	FillingsUpdate:  mu: -0.209035099  nElectrons: 338.000000
	SubspaceRotationAdjust: set factor to 0.0303
ElecMinimize: Iter:  13  F: -1819.541745075320478  |grad|_K:  7.794e-06  alpha:  1.392e-01  linmin: -2.086e-05  t[s]:   9412.84
ElecMinimize: 	Predicted alpha/alphaT>3.000000, increasing alphaT to 4.176668e-01.
	FillingsUpdate:  mu: -0.202272593  nElectrons: 338.000000
	SubspaceRotationAdjust: set factor to 0.0389
ElecMinimize: Iter:  14  F: -1819.542975733160119  |grad|_K:  8.675e-06  alpha:  4.533e-01  linmin: -1.218e-05  t[s]:   9889.78
	FillingsUpdate:  mu: -0.202616710  nElectrons: 338.000000
	SubspaceRotationAdjust: set factor to 0.032
ElecMinimize: Iter:  15  F: -1819.543935498708606  |grad|_K:  8.836e-06  alpha:  2.874e-01  linmin: -2.210e-06  t[s]:  10276.61
	FillingsUpdate:  mu: -0.208575741  nElectrons: 338.000000
	SubspaceRotationAdjust: set factor to 0.0404
ElecMinimize: Iter:  16  F: -1819.545206141979634  |grad|_K:  6.107e-06  alpha:  3.648e-01  linmin: -3.984e-05  t[s]:  10663.46
	FillingsUpdate:  mu: -0.208510478  nElectrons: 338.000000
	SubspaceRotationAdjust: set factor to 0.0341
ElecMinimize: Iter:  17  F: -1819.545815831695563  |grad|_K:  6.944e-06  alpha:  3.638e-01  linmin: -5.742e-06  t[s]:  11046.57
	FillingsUpdate:  mu: -0.208942908  nElectrons: 338.000000
	SubspaceRotationAdjust: set factor to 0.03
ElecMinimize: Iter:  18  F: -1819.546290226153133  |grad|_K:  3.632e-06  alpha:  2.215e-01  linmin:  9.138e-07  t[s]:  11432.27
	FillingsUpdate:  mu: -0.207874816  nElectrons: 338.000000
	SubspaceRotationAdjust: set factor to 0.0339
ElecMinimize: Iter:  19  F: -1819.546558620236283  |grad|_K:  3.226e-06  alpha:  4.570e-01  linmin: -1.391e-05  t[s]:  11819.26
	FillingsUpdate:  mu: -0.207390412  nElectrons: 338.000000
	SubspaceRotationAdjust: set factor to 0.0264
ElecMinimize: Iter:  20  F: -1819.546696453642880  |grad|_K:  2.783e-06  alpha:  2.972e-01  linmin: -5.302e-07  t[s]:  12207.70
	FillingsUpdate:  mu: -0.207238169  nElectrons: 338.000000
	SubspaceRotationAdjust: set factor to 0.0285
ElecMinimize: Iter:  21  F: -1819.546814977865779  |grad|_K:  1.815e-06  alpha:  3.441e-01  linmin: -7.284e-06  t[s]:  12594.97
	FillingsUpdate:  mu: -0.207403741  nElectrons: 338.000000
	SubspaceRotationAdjust: set factor to 0.0324
ElecMinimize: Iter:  22  F: -1819.546888153263353  |grad|_K:  1.622e-06  alpha:  4.988e-01  linmin: -4.562e-06  t[s]:  12979.56
	FillingsUpdate:  mu: -0.207393405  nElectrons: 338.000000
	SubspaceRotationAdjust: set factor to 0.0282
ElecMinimize: Iter:  23  F: -1819.546930808551224  |grad|_K:  1.592e-06  alpha:  3.644e-01  linmin:  1.635e-07  t[s]:  13366.06
	FillingsUpdate:  mu: -0.207150801  nElectrons: 338.000000
	SubspaceRotationAdjust: set factor to 0.0283
ElecMinimize: Iter:  24  F: -1819.546977169869933  |grad|_K:  1.404e-06  alpha:  4.116e-01  linmin: -1.262e-06  t[s]:  13753.79
	FillingsUpdate:  mu: -0.206595632  nElectrons: 338.000000
	SubspaceRotationAdjust: set factor to 0.0323
ElecMinimize: Iter:  25  F: -1819.547040073925473  |grad|_K:  1.456e-06  alpha:  7.166e-01  linmin: -9.179e-07  t[s]:  14142.73
	FillingsUpdate:  mu: -0.206226970  nElectrons: 338.000000
	SubspaceRotationAdjust: set factor to 0.0305
ElecMinimize: Iter:  26  F: -1819.547088923029150  |grad|_K:  1.702e-06  alpha:  5.179e-01  linmin:  1.772e-06  t[s]:  14526.11
	FillingsUpdate:  mu: -0.205898517  nElectrons: 338.000000
	SubspaceRotationAdjust: set factor to 0.0243
ElecMinimize: Iter:  27  F: -1819.547136374594629  |grad|_K:  1.587e-06  alpha:  3.692e-01  linmin:  1.159e-06  t[s]:  14912.04
	FillingsUpdate:  mu: -0.205362266  nElectrons: 338.000000
	SubspaceRotationAdjust: set factor to 0.0253
ElecMinimize: Iter:  28  F: -1819.547194131782589  |grad|_K:  1.374e-06  alpha:  5.169e-01  linmin:  3.099e-06  t[s]:  15296.29
	FillingsUpdate:  mu: -0.205020731  nElectrons: 338.000000
	SubspaceRotationAdjust: set factor to 0.026
ElecMinimize: Iter:  29  F: -1819.547241261538829  |grad|_K:  1.231e-06  alpha:  5.636e-01  linmin:  2.343e-06  t[s]:  15684.93
	FillingsUpdate:  mu: -0.204695111  nElectrons: 338.000000
	SubspaceRotationAdjust: set factor to 0.0209
ElecMinimize: Iter:  30  F: -1819.547266553267264  |grad|_K:  9.852e-07  alpha:  3.761e-01  linmin: -1.890e-08  t[s]:  16072.85
	FillingsUpdate:  mu: -0.204413493  nElectrons: 338.000000
	SubspaceRotationAdjust: set factor to 0.019
ElecMinimize: Iter:  31  F: -1819.547282493411331  |grad|_K:  6.984e-07  alpha:  3.694e-01  linmin:  5.942e-07  t[s]:  16457.42
	FillingsUpdate:  mu: -0.204396271  nElectrons: 338.000000
	SubspaceRotationAdjust: set factor to 0.0215
ElecMinimize: Iter:  32  F: -1819.547292768766283  |grad|_K:  5.069e-07  alpha:  4.740e-01  linmin: -7.563e-08  t[s]:  16844.67
	FillingsUpdate:  mu: -0.204495479  nElectrons: 338.000000
	SubspaceRotationAdjust: set factor to 0.0206
ElecMinimize: Iter:  33  F: -1819.547297599325702  |grad|_K:  4.027e-07  alpha:  4.228e-01  linmin: -1.051e-07  t[s]:  17227.99
	FillingsUpdate:  mu: -0.204534733  nElectrons: 338.000000
	SubspaceRotationAdjust: set factor to 0.0203
ElecMinimize: Iter:  34  F: -1819.547300580332831  |grad|_K:  3.063e-07  alpha:  4.135e-01  linmin:  1.049e-07  t[s]:  17617.63
	FillingsUpdate:  mu: -0.204553891  nElectrons: 338.000000
	SubspaceRotationAdjust: set factor to 0.024
ElecMinimize: Iter:  35  F: -1819.547302790044569  |grad|_K:  2.750e-07  alpha:  5.302e-01  linmin:  8.845e-07  t[s]:  17998.85
	FillingsUpdate:  mu: -0.204675530  nElectrons: 338.000000
	SubspaceRotationAdjust: set factor to 0.0261
ElecMinimize: Iter:  36  F: -1819.547304639700997  |grad|_K:  2.808e-07  alpha:  5.509e-01  linmin:  4.259e-07  t[s]:  18382.77
	FillingsUpdate:  mu: -0.204850165  nElectrons: 338.000000
	SubspaceRotationAdjust: set factor to 0.0253
ElecMinimize: Iter:  37  F: -1819.547306469121622  |grad|_K:  2.995e-07  alpha:  5.225e-01  linmin:  4.676e-07  t[s]:  18766.50
	FillingsUpdate:  mu: -0.205024743  nElectrons: 338.000000
	SubspaceRotationAdjust: set factor to 0.0251
ElecMinimize: Iter:  38  F: -1819.547308584689745  |grad|_K:  3.046e-07  alpha:  5.312e-01  linmin: -3.050e-08  t[s]:  19148.08
	FillingsUpdate:  mu: -0.205196793  nElectrons: 338.000000
	SubspaceRotationAdjust: set factor to 0.0268
ElecMinimize: Iter:  39  F: -1819.547311024767168  |grad|_K:  2.945e-07  alpha:  5.917e-01  linmin:  1.041e-07  t[s]:  19534.87
	FillingsUpdate:  mu: -0.205378368  nElectrons: 338.000000
	SubspaceRotationAdjust: set factor to 0.0276
ElecMinimize: Iter:  40  F: -1819.547313231752014  |grad|_K:  2.839e-07  alpha:  5.724e-01  linmin: -1.396e-07  t[s]:  19923.16
	FillingsUpdate:  mu: -0.205504768  nElectrons: 338.000000
	SubspaceRotationAdjust: set factor to 0.0241
ElecMinimize: Iter:  41  F: -1819.547314795406919  |grad|_K:  2.525e-07  alpha:  4.362e-01  linmin: -2.252e-08  t[s]:  20308.19
	FillingsUpdate:  mu: -0.205570019  nElectrons: 338.000000
	SubspaceRotationAdjust: set factor to 0.0207
ElecMinimize: Iter:  42  F: -1819.547315836780399  |grad|_K:  1.926e-07  alpha:  3.679e-01  linmin: -1.020e-07  t[s]:  20690.92
	FillingsUpdate:  mu: -0.205601259  nElectrons: 338.000000
	SubspaceRotationAdjust: set factor to 0.0236
ElecMinimize: Iter:  43  F: -1819.547316606400955  |grad|_K:  1.414e-07  alpha:  4.669e-01  linmin:  4.440e-07  t[s]:  21076.26
	FillingsUpdate:  mu: -0.205611273  nElectrons: 338.000000
	SubspaceRotationAdjust: set factor to 0.0247
ElecMinimize: Iter:  44  F: -1819.547317042416807  |grad|_K:  1.193e-07  alpha:  4.906e-01  linmin:  2.503e-07  t[s]:  21462.37
	FillingsUpdate:  mu: -0.205626124  nElectrons: 338.000000
	SubspaceRotationAdjust: set factor to 0.0235
ElecMinimize: Iter:  45  F: -1819.547317302878355  |grad|_K:  1.033e-07  alpha:  4.116e-01  linmin:  4.736e-07  t[s]:  21850.75
	FillingsUpdate:  mu: -0.205636520  nElectrons: 338.000000
	SubspaceRotationAdjust: set factor to 0.0255
ElecMinimize: Iter:  46  F: -1819.547317525519247  |grad|_K:  8.801e-08  alpha:  4.665e-01  linmin: -2.449e-06  t[s]:  22235.64
	FillingsUpdate:  mu: -0.205610530  nElectrons: 338.000000
	SubspaceRotationAdjust: set factor to 0.0292
ElecMinimize: Iter:  47  F: -1819.547317742202040  |grad|_K:  9.031e-08  alpha:  6.260e-01  linmin:  3.850e-07  t[s]:  22617.84
	FillingsUpdate:  mu: -0.205585056  nElectrons: 338.000000
	SubspaceRotationAdjust: set factor to 0.0301
ElecMinimize: Iter:  48  F: -1819.547317944641009  |grad|_K:  9.767e-08  alpha:  5.606e-01  linmin: -1.546e-07  t[s]:  23003.56
	FillingsUpdate:  mu: -0.205583448  nElectrons: 338.000000
	SubspaceRotationAdjust: set factor to 0.0269
ElecMinimize: Iter:  49  F: -1819.547318140483412  |grad|_K:  1.023e-07  alpha:  4.603e-01  linmin:  1.697e-07  t[s]:  23389.22
	FillingsUpdate:  mu: -0.205580109  nElectrons: 338.000000
	SubspaceRotationAdjust: set factor to 0.025
ElecMinimize: Iter:  50  F: -1819.547318341781875  |grad|_K:  9.065e-08  alpha:  4.350e-01  linmin:  4.314e-07  t[s]:  23773.41
	FillingsUpdate:  mu: -0.205547068  nElectrons: 338.000000
	SubspaceRotationAdjust: set factor to 0.0272
ElecMinimize: Iter:  51  F: -1819.547318534277338  |grad|_K:  8.004e-08  alpha:  5.294e-01  linmin:  1.646e-07  t[s]:  24161.52
	FillingsUpdate:  mu: -0.205517135  nElectrons: 338.000000
	SubspaceRotationAdjust: set factor to 0.0289
ElecMinimize: Iter:  52  F: -1819.547318681635943  |grad|_K:  6.949e-08  alpha:  5.189e-01  linmin: -2.309e-07  t[s]:  24545.06
	FillingsUpdate:  mu: -0.205506097  nElectrons: 338.000000
	SubspaceRotationAdjust: set factor to 0.0266
ElecMinimize: Iter:  53  F: -1819.547318773518555  |grad|_K:  6.444e-08  alpha:  4.265e-01  linmin:  8.403e-07  t[s]:  24931.11
	FillingsUpdate:  mu: -0.205497828  nElectrons: 338.000000
	SubspaceRotationAdjust: set factor to 0.0247
ElecMinimize: Iter:  54  F: -1819.547318840370508  |grad|_K:  5.081e-08  alpha:  3.649e-01  linmin: -1.653e-06  t[s]:  25316.74
	FillingsUpdate:  mu: -0.205484220  nElectrons: 338.000000
	SubspaceRotationAdjust: set factor to 0.028
ElecMinimize: Iter:  55  F: -1819.547318900513574  |grad|_K:  4.453e-08  alpha:  5.420e-01  linmin:  6.543e-06  t[s]:  25701.23
	FillingsUpdate:  mu: -0.205478809  nElectrons: 338.000000
	SubspaceRotationAdjust: set factor to 0.0304
ElecMinimize: Iter:  56  F: -1819.547318945720008  |grad|_K:  4.181e-08  alpha:  5.355e-01  linmin:  1.100e-06  t[s]:  26085.92
	FillingsUpdate:  mu: -0.205475138  nElectrons: 338.000000
	SubspaceRotationAdjust: set factor to 0.028
ElecMinimize: Iter:  57  F: -1819.547318978390877  |grad|_K:  3.866e-08  alpha:  4.250e-01  linmin: -4.152e-07  t[s]:  26473.85
	FillingsUpdate:  mu: -0.205471493  nElectrons: 338.000000
	SubspaceRotationAdjust: set factor to 0.0251
ElecMinimize: Iter:  58  F: -1819.547319002209861  |grad|_K:  3.170e-08  alpha:  3.653e-01  linmin: -4.628e-06  t[s]:  26858.45
	FillingsUpdate:  mu: -0.205471992  nElectrons: 338.000000
	SubspaceRotationAdjust: set factor to 0.0265
ElecMinimize: Iter:  59  F: -1819.547319024573653  |grad|_K:  2.641e-08  alpha:  4.801e-01  linmin:  6.082e-06  t[s]:  27241.77
	FillingsUpdate:  mu: -0.205475964  nElectrons: 338.000000
	SubspaceRotationAdjust: set factor to 0.0296
ElecMinimize: Iter:  60  F: -1819.547319037918896  |grad|_K:  2.073e-08  alpha:  4.711e-01  linmin: -1.743e-06  t[s]:  27629.79
	FillingsUpdate:  mu: -0.205477438  nElectrons: 338.000000
	SubspaceRotationAdjust: set factor to 0.0293
ElecMinimize: Iter:  61  F: -1819.547319047575002  |grad|_K:  2.066e-08  alpha:  5.069e-01  linmin:  1.062e-05  t[s]:  28017.53
	FillingsUpdate:  mu: -0.205478748  nElectrons: 338.000000
	SubspaceRotationAdjust: set factor to 0.0277
ElecMinimize: Iter:  62  F: -1819.547319052899184  |grad|_K:  1.707e-08  alpha:  3.185e-01  linmin: -3.504e-06  t[s]:  28403.21
ElecMinimize: Converged (|Delta F|<1.000000e-08 for 2 iters).
Setting wave functions to eigenvectors of Hamiltonian

# Ionic positions in lattice coordinates:
ion H   0.649000000000000   0.425000000000000   0.362000000000000 1
ion H   0.494000000000000   0.842000000000000   0.362000000000000 1
ion C   0.500000000000000   0.500000000000000   0.362000000000000 1
ion O   0.248000000000000   0.372000000000000   0.362000000000000 1
ion O   0.626000000000000   0.780000000000000   0.362000000000000 1
ion Pt   0.333300000000000   0.166700000000000  -0.200100000000000 0
ion Pt   0.333300000000000   0.666700000000000  -0.200100000000000 0
ion Pt   0.833300000000000   0.166700000000000  -0.200100000000000 0
ion Pt   0.833300000000000   0.666700000000000  -0.200100000000000 0
ion Pt   0.000000000000000   0.000000000000000  -0.100000000000000 0
ion Pt   0.000000000000000   0.500000000000000  -0.100000000000000 0
ion Pt   0.500000000000000   0.000000000000000  -0.100000000000000 0
ion Pt   0.500000000000000   0.500000000000000  -0.100000000000000 0
ion Pt   0.166700000000000   0.333300000000000   0.000000000000000 1
ion Pt   0.166700000000000   0.833300000000000   0.000000000000000 1
ion Pt   0.666700000000000   0.333300000000000   0.000000000000000 1
ion Pt   0.666700000000000   0.833300000000000   0.000000000000000 1
ion Pt   0.333300000000000   0.166700000000000   0.100000000000000 1
ion Pt   0.333300000000000   0.666700000000000   0.100000000000000 1
ion Pt   0.833300000000000   0.166700000000000   0.100000000000000 1
ion Pt   0.833300000000000   0.666700000000000   0.100000000000000 1
ion Pt   0.000000000000000   0.000000000000000   0.200100000000000 1
ion Pt   0.000000000000000   0.500000000000000   0.200100000000000 1
ion Pt   0.500000000000000   0.000000000000000   0.200100000000000 1
ion Pt   0.500000000000000   0.500000000000000   0.200100000000000 1


# Forces in Lattice coordinates:
force H   0.092269365437491  -0.076102722618942  -0.006531919727320 1
force H  -0.414122371901086   0.231694195010307  -0.034830373778722 1
force C  -0.468360452549506   0.513839658072972  -0.036120135408154 1
force O   0.065427691178364  -0.287584629953777   0.016829956831873 1
force O   0.724963848357357  -0.381202180158979   0.034413801349697 1
force Pt   0.000135370529616  -0.000072816556996  -0.015159286403738 0
force Pt   0.000034872593166   0.000008620262357  -0.016080300921565 0
force Pt  -0.000004235707241   0.000020753946752  -0.014010810659846 0
force Pt   0.000060816804300  -0.000076889954074  -0.014594903698758 0
force Pt   0.000016142005236   0.000093934382485   0.086762042137847 0
force Pt   0.000171518279383  -0.000021459103576   0.089017126260656 0
force Pt   0.000059969487369  -0.000131117090967   0.088658736862952 0
force Pt  -0.000123861775565   0.000070868552565   0.085976921721854 0
force Pt  -0.000144719601984   0.000194522430272  -0.002772576593287 1
force Pt  -0.000447903703116   0.000363644989609  -0.003113558036326 1
force Pt  -0.000347828652229   0.000313283607680   0.006277571697907 1
force Pt  -0.000148533798866   0.000127771206532   0.001584933819658 1
force Pt  -0.000566435676768  -0.000396795402544  -0.084788138111914 1
force Pt   0.000004770016267  -0.000413437148260  -0.084691831408347 1
force Pt   0.001026576086089  -0.000681419815130  -0.082204082060559 1
force Pt   0.000538074775794   0.000004655311034  -0.083154678766280 1
force Pt  -0.000579643124192   0.001033904491640   0.027465069198147 1
force Pt   0.001022181307002  -0.000725833219010   0.015630519108609 1
force Pt   0.000182173513557  -0.000445790995391   0.009685048993740 1
force Pt  -0.000733006341831   0.000243076570349   0.013052165716217 1

# Energy components:
   Eewald =   -31135.0501575885755301
       EH =   -29601.9985370341237285
     Eloc =    58595.7098665862940834
      Enl =      -15.8031653770952261
      Exc =     -575.8523539511301124
 Exc_core =      324.9917232573478145
       KE =      588.6945544546732663
-------------------------------------
     Etot =    -1819.3080696526130851
       TS =        0.2392494002862084
-------------------------------------
        F =    -1819.5473190528991836

IonicMinimize: Iter:   0  F: -1819.547319052899184  |grad|_K:  1.417e-02  t[s]:  28464.70

#--- Lowdin population analysis ---
# oxidation-state H +0.212 +0.433
# oxidation-state C +0.434
# oxidation-state O -0.351 -0.421
# oxidation-state Pt +0.008 +0.008 +0.008 +0.008 +0.011 +0.011 +0.011 +0.011 +0.015 +0.015 +0.015 +0.015 +0.011 +0.010 +0.011 +0.011 +0.004 -0.006 -0.016 -0.021


-------- Electronic minimization -----------
	FillingsUpdate:  mu: -0.207259919  nElectrons: 338.000000
ElecMinimize: Iter:   0  F: -1819.500807977460909  |grad|_K:  5.188e-05  alpha:  1.000e+00
	FillingsUpdate:  mu: -0.203659343  nElectrons: 338.000000
	SubspaceRotationAdjust: set factor to 0.0273
ElecMinimize: Iter:   1  F: -1819.547005123735062  |grad|_K:  1.345e-05  alpha:  3.894e-01  linmin:  1.345e-02  t[s]:  29149.74
	FillingsUpdate:  mu: -0.204534705  nElectrons: 338.000000
	SubspaceRotationAdjust: set factor to 0.0211
ElecMinimize: Iter:   2  F: -1819.549583552782678  |grad|_K:  7.117e-06  alpha:  3.231e-01  linmin: -2.507e-04  t[s]:  29541.61
	FillingsUpdate:  mu: -0.205377382  nElectrons: 338.000000
	SubspaceRotationAdjust: set factor to 0.0135
ElecMinimize: Iter:   3  F: -1819.550192246373854  |grad|_K:  4.148e-06  alpha:  2.703e-01  linmin: -3.965e-06  t[s]:  29930.28
	FillingsUpdate:  mu: -0.205527149  nElectrons: 338.000000
	SubspaceRotationAdjust: set factor to 0.0189
ElecMinimize: Iter:   4  F: -1819.550480764436770  |grad|_K:  2.127e-06  alpha:  3.772e-01  linmin: -7.069e-05  t[s]:  30312.41
	FillingsUpdate:  mu: -0.205506103  nElectrons: 338.000000
	SubspaceRotationAdjust: set factor to 0.0211
ElecMinimize: Iter:   5  F: -1819.550572449347328  |grad|_K:  1.629e-06  alpha:  4.558e-01  linmin:  7.292e-06  t[s]:  30693.94
	FillingsUpdate:  mu: -0.205576664  nElectrons: 338.000000
	SubspaceRotationAdjust: set factor to 0.0218
ElecMinimize: Iter:   6  F: -1819.550640985566588  |grad|_K:  1.785e-06  alpha:  5.808e-01  linmin:  2.940e-06  t[s]:  31078.18
	FillingsUpdate:  mu: -0.205755854  nElectrons: 338.000000
	SubspaceRotationAdjust: set factor to 0.0235
ElecMinimize: Iter:   7  F: -1819.550736405477210  |grad|_K:  2.242e-06  alpha:  6.739e-01  linmin: -7.393e-06  t[s]:  31457.97
	FillingsUpdate:  mu: -0.206042067  nElectrons: 338.000000
	SubspaceRotationAdjust: set factor to 0.0258
ElecMinimize: Iter:   8  F: -1819.551024508931960  |grad|_K:  3.304e-06  alpha:  1.287e+00  linmin: -2.933e-05  t[s]:  31844.34
	FillingsUpdate:  mu: -0.206132269  nElectrons: 338.000000
	SubspaceRotationAdjust: set factor to 0.0244
ElecMinimize: Iter:   9  F: -1819.551449142631327  |grad|_K:  4.659e-06  alpha:  8.724e-01  linmin:  1.229e-05  t[s]:  32230.41
	FillingsUpdate:  mu: -0.206651663  nElectrons: 338.000000
	SubspaceRotationAdjust: set factor to 0.0176
ElecMinimize: Iter:  10  F: -1819.551824304801585  |grad|_K:  3.742e-06  alpha:  3.912e-01  linmin:  2.808e-05  t[s]:  32616.28
	FillingsUpdate:  mu: -0.206935456  nElectrons: 338.000000
	SubspaceRotationAdjust: set factor to 0.0186
ElecMinimize: Iter:  11  F: -1819.552094380891276  |grad|_K:  2.246e-06  alpha:  4.352e-01  linmin:  1.007e-05  t[s]:  33008.88
	FillingsUpdate:  mu: -0.206961187  nElectrons: 338.000000
	SubspaceRotationAdjust: set factor to 0.0188
ElecMinimize: Iter:  12  F: -1819.552198429274085  |grad|_K:  1.271e-06  alpha:  4.643e-01  linmin: -3.050e-06  t[s]:  33397.32
	FillingsUpdate:  mu: -0.206948032  nElectrons: 338.000000
	SubspaceRotationAdjust: set factor to 0.0158
ElecMinimize: Iter:  13  F: -1819.552225633764465  |grad|_K:  8.159e-07  alpha:  3.787e-01  linmin: -7.666e-06  t[s]:  33779.72
	FillingsUpdate:  mu: -0.206905177  nElectrons: 338.000000
	SubspaceRotationAdjust: set factor to 0.0186
ElecMinimize: Iter:  14  F: -1819.552236859684854  |grad|_K:  4.796e-07  alpha:  3.793e-01  linmin:  2.607e-06  t[s]:  34165.95
	FillingsUpdate:  mu: -0.206843964  nElectrons: 338.000000
	SubspaceRotationAdjust: set factor to 0.0233
ElecMinimize: Iter:  15  F: -1819.552242760149284  |grad|_K:  4.013e-07  alpha:  5.774e-01  linmin:  6.356e-06  t[s]:  34555.53
	FillingsUpdate:  mu: -0.206744759  nElectrons: 338.000000
	SubspaceRotationAdjust: set factor to 0.027
ElecMinimize: Iter:  16  F: -1819.552247792837761  |grad|_K:  5.158e-07  alpha:  7.034e-01  linmin: -1.251e-06  t[s]:  34944.81
	FillingsUpdate:  mu: -0.206515493  nElectrons: 338.000000
	SubspaceRotationAdjust: set factor to 0.0265
ElecMinimize: Iter:  17  F: -1819.552255520812423  |grad|_K:  6.745e-07  alpha:  6.530e-01  linmin:  4.475e-06  t[s]:  35330.37
	FillingsUpdate:  mu: -0.206080328  nElectrons: 338.000000
	SubspaceRotationAdjust: set factor to 0.0261
ElecMinimize: Iter:  18  F: -1819.552268857039735  |grad|_K:  7.430e-07  alpha:  6.604e-01  linmin:  2.341e-06  t[s]:  35716.92
	FillingsUpdate:  mu: -0.205575307  nElectrons: 338.000000
	SubspaceRotationAdjust: set factor to 0.0267
ElecMinimize: Iter:  19  F: -1819.552284887777887  |grad|_K:  6.597e-07  alpha:  6.539e-01  linmin:  4.561e-06  t[s]:  36097.80
	FillingsUpdate:  mu: -0.205295348  nElectrons: 338.000000
	SubspaceRotationAdjust: set factor to 0.029
ElecMinimize: Iter:  20  F: -1819.552294292187526  |grad|_K:  4.745e-07  alpha:  4.869e-01  linmin: -8.655e-07  t[s]:  36484.36
	FillingsUpdate:  mu: -0.205188218  nElectrons: 338.000000
	SubspaceRotationAdjust: set factor to 0.0341
ElecMinimize: Iter:  21  F: -1819.552298899210655  |grad|_K:  3.295e-07  alpha:  4.601e-01  linmin: -1.909e-06  t[s]:  36867.99
	FillingsUpdate:  mu: -0.205187507  nElectrons: 338.000000
	SubspaceRotationAdjust: set factor to 0.031
ElecMinimize: Iter:  22  F: -1819.552300996574331  |grad|_K:  2.876e-07  alpha:  4.344e-01  linmin: -3.290e-08  t[s]:  37249.90
	FillingsUpdate:  mu: -0.205230496  nElectrons: 338.000000
	SubspaceRotationAdjust: set factor to 0.029
ElecMinimize: Iter:  23  F: -1819.552302262254443  |grad|_K:  2.682e-07  alpha:  3.444e-01  linmin:  5.161e-07  t[s]:  37629.49
	FillingsUpdate:  mu: -0.205307679  nElectrons: 338.000000
	SubspaceRotationAdjust: set factor to 0.0346
ElecMinimize: Iter:  24  F: -1819.552303732074733  |grad|_K:  2.393e-07  alpha:  4.600e-01  linmin:  1.431e-06  t[s]:  38011.77
	FillingsUpdate:  mu: -0.205437105  nElectrons: 338.000000
	SubspaceRotationAdjust: set factor to 0.04
ElecMinimize: Iter:  25  F: -1819.552305555400380  |grad|_K:  2.534e-07  alpha:  7.162e-01  linmin: -7.476e-07  t[s]:  38398.03
	FillingsUpdate:  mu: -0.205597124  nElectrons: 338.000000
	SubspaceRotationAdjust: set factor to 0.0419
ElecMinimize: Iter:  26  F: -1819.552307185788322  |grad|_K:  2.617e-07  alpha:  5.713e-01  linmin: -1.650e-06  t[s]:  38780.56
	FillingsUpdate:  mu: -0.205696430  nElectrons: 338.000000
	SubspaceRotationAdjust: set factor to 0.0344
ElecMinimize: Iter:  27  F: -1819.552308103021687  |grad|_K:  2.550e-07  alpha:  3.010e-01  linmin: -2.773e-07  t[s]:  39164.82
	FillingsUpdate:  mu: -0.205789283  nElectrons: 338.000000
	SubspaceRotationAdjust: set factor to 0.0338
ElecMinimize: Iter:  28  F: -1819.552308904469101  |grad|_K:  1.677e-07  alpha:  2.774e-01  linmin: -1.197e-06  t[s]:  39553.04
	FillingsUpdate:  mu: -0.205862472  nElectrons: 338.000000
	SubspaceRotationAdjust: set factor to 0.047
ElecMinimize: Iter:  29  F: -1819.552309564599227  |grad|_K:  1.366e-07  alpha:  5.279e-01  linmin: -1.047e-06  t[s]:  39940.59
	FillingsUpdate:  mu: -0.205912966  nElectrons: 338.000000
	SubspaceRotationAdjust: set factor to 0.0457
ElecMinimize: Iter:  30  F: -1819.552310024153712  |grad|_K:  1.588e-07  alpha:  5.536e-01  linmin:  3.395e-06  t[s]:  40325.40
	FillingsUpdate:  mu: -0.205950665  nElectrons: 338.000000
	SubspaceRotationAdjust: set factor to 0.0412
ElecMinimize: Iter:  31  F: -1819.552310377729782  |grad|_K:  1.883e-07  alpha:  3.162e-01  linmin: -5.074e-07  t[s]:  40703.78
	FillingsUpdate:  mu: -0.206000079  nElectrons: 338.000000
	SubspaceRotationAdjust: set factor to 0.0415
ElecMinimize: Iter:  32  F: -1819.552310877875470  |grad|_K:  1.494e-07  alpha:  3.175e-01  linmin: -1.622e-06  t[s]:  41084.98
	FillingsUpdate:  mu: -0.206053952  nElectrons: 338.000000
	SubspaceRotationAdjust: set factor to 0.0467
ElecMinimize: Iter:  33  F: -1819.552311463882234  |grad|_K:  1.371e-07  alpha:  5.916e-01  linmin:  3.984e-06  t[s]:  41465.38
	FillingsUpdate:  mu: -0.206077812  nElectrons: 338.000000
	SubspaceRotationAdjust: set factor to 0.0411
ElecMinimize: Iter:  34  F: -1819.552311775406224  |grad|_K:  1.440e-07  alpha:  3.746e-01  linmin: -1.325e-06  t[s]:  41846.52
	FillingsUpdate:  mu: -0.206090002  nElectrons: 338.000000
	SubspaceRotationAdjust: set factor to 0.0299
ElecMinimize: Iter:  35  F: -1819.552311955105097  |grad|_K:  9.555e-08  alpha:  1.946e-01  linmin:  1.352e-07  t[s]:  42228.26
	FillingsUpdate:  mu: -0.206100576  nElectrons: 338.000000
	SubspaceRotationAdjust: set factor to 0.0396
ElecMinimize: Iter:  36  F: -1819.552312107761054  |grad|_K:  6.195e-08  alpha:  3.726e-01  linmin: -1.603e-05  t[s]:  42607.80
	FillingsUpdate:  mu: -0.206101281  nElectrons: 338.000000
	SubspaceRotationAdjust: set factor to 0.037
ElecMinimize: Iter:  37  F: -1819.552312178470402  |grad|_K:  5.483e-08  alpha:  4.086e-01  linmin: -1.210e-06  t[s]:  42992.27
	FillingsUpdate:  mu: -0.206097030  nElectrons: 338.000000
	SubspaceRotationAdjust: set factor to 0.0337
ElecMinimize: Iter:  38  F: -1819.552312213208552  |grad|_K:  5.065e-08  alpha:  2.706e-01  linmin: -3.304e-06  t[s]:  43375.48
	FillingsUpdate:  mu: -0.206086868  nElectrons: 338.000000
	SubspaceRotationAdjust: set factor to 0.0425
ElecMinimize: Iter:  39  F: -1819.552312260144845  |grad|_K:  4.554e-08  alpha:  4.237e-01  linmin:  5.306e-05  t[s]:  43756.80
	FillingsUpdate:  mu: -0.206071099  nElectrons: 338.000000
	SubspaceRotationAdjust: set factor to 0.0507
ElecMinimize: Iter:  40  F: -1819.552312315945301  |grad|_K:  5.312e-08  alpha:  6.525e-01  linmin:  1.806e-05  t[s]:  44141.96
	FillingsUpdate:  mu: -0.206052501  nElectrons: 338.000000
	SubspaceRotationAdjust: set factor to 0.0462
ElecMinimize: Iter:  41  F: -1819.552312363596002  |grad|_K:  6.976e-08  alpha:  3.916e-01  linmin: -6.890e-07  t[s]:  44524.31
	FillingsUpdate:  mu: -0.206029138  nElectrons: 338.000000
	SubspaceRotationAdjust: set factor to 0.0357
ElecMinimize: Iter:  42  F: -1819.552312413458594  |grad|_K:  5.129e-08  alpha:  2.313e-01  linmin: -1.597e-06  t[s]:  44904.82
	FillingsUpdate:  mu: -0.205992406  nElectrons: 338.000000
	SubspaceRotationAdjust: set factor to 0.0371
ElecMinimize: Iter:  43  F: -1819.552312468685386  |grad|_K:  4.087e-08  alpha:  5.009e-01  linmin:  3.734e-05  t[s]:  45288.89
	FillingsUpdate:  mu: -0.205974255  nElectrons: 338.000000
	SubspaceRotationAdjust: set factor to 0.0425
ElecMinimize: Iter:  44  F: -1819.552312497590719  |grad|_K:  2.899e-08  alpha:  4.101e-01  linmin:  8.321e-06  t[s]:  45673.00
	FillingsUpdate:  mu: -0.205963212  nElectrons: 338.000000
	SubspaceRotationAdjust: set factor to 0.0558
ElecMinimize: Iter:  45  F: -1819.552312513994366  |grad|_K:  2.216e-08  alpha:  4.553e-01  linmin:  2.365e-05  t[s]:  46061.81
	FillingsUpdate:  mu: -0.205953874  nElectrons: 338.000000
	SubspaceRotationAdjust: set factor to 0.0493
ElecMinimize: Iter:  46  F: -1819.552312523161163  |grad|_K:  2.296e-08  alpha:  4.352e-01  linmin: -2.792e-05  t[s]:  46450.38
	FillingsUpdate:  mu: -0.205947777  nElectrons: 338.000000
	SubspaceRotationAdjust: set factor to 0.0412
ElecMinimize: Iter:  47  F: -1819.552312529148821  |grad|_K:  2.410e-08  alpha:  2.471e-01  linmin:  4.617e-06  t[s]:  46835.14
ElecMinimize: Converged (|Delta F|<1.000000e-08 for 2 iters).
Setting wave functions to eigenvectors of Hamiltonian

# Ionic positions in lattice coordinates:
ion H   0.649658288181743   0.424636142886232   0.361996428995115 1
ion H   0.490378489190097   0.842299081808812   0.361980958211354 1
ion C   0.497432792559639   0.503395486459277   0.361980253097808 1
ion O   0.247048535508768   0.368905485033669   0.362009200948659 1
ion O   0.632487968234819   0.779772707913741   0.362018814048221 1
ion Pt   0.333300000000000   0.166700000000000  -0.200100000000000 0
ion Pt   0.333300000000000   0.666700000000000  -0.200100000000000 0
ion Pt   0.833300000000000   0.166700000000000  -0.200100000000000 0
ion Pt   0.833300000000000   0.666700000000000  -0.200100000000000 0
ion Pt   0.000000000000000   0.000000000000000  -0.100000000000000 0
ion Pt   0.000000000000000   0.500000000000000  -0.100000000000000 0
ion Pt   0.500000000000000   0.000000000000000  -0.100000000000000 0
ion Pt   0.500000000000000   0.500000000000000  -0.100000000000000 0
ion Pt   0.166699423783747   0.333301483238205  -0.000001515769478 1
ion Pt   0.166696769373612   0.833301696084969  -0.000001702184261 1
ion Pt   0.666697678703877   0.333301692152864   0.000003431952647 1
ion Pt   0.666698972243489   0.833300649622826   0.000000866484380 1
ion Pt   0.333290713771525   0.166691743615665   0.099953646268171 1
ion Pt   0.333297548040525   0.666695009208283   0.099953698919110 1
ion Pt   0.833308327447807   0.166697958627207   0.099955058973343 1
ion Pt   0.833306561298957   0.666703323041341   0.099954539281488 1
ion Pt  -0.000000761161629   0.000009034286795   0.200115015171705 1
ion Pt   0.000008004465786   0.499997392702014   0.200108545215254 1
ion Pt   0.499999505573816  -0.000004306643375   0.200105294822764 1
ion Pt   0.499992575857380   0.499998501415281   0.200107135627729 1


# Forces in Lattice coordinates:
force H  -0.081178281667183   0.055451886410949  -0.009186405415633 1
force H   0.128903324429692  -0.135256042543158  -0.033146406205198 1
force C   0.009342373165487   0.065937287699119  -0.025564615394866 1
force O  -0.068110725902589  -0.157644293679710   0.010138511401171 1
force O   0.009845223319312   0.172985415108004   0.028652099245372 1
force Pt   0.000133652075774  -0.000072343079103  -0.012290395426783 0
force Pt   0.000037241812961   0.000005387800036  -0.013314764072620 0
force Pt  -0.000005699707959   0.000019031414302  -0.011093709024303 0
force Pt   0.000057252756076  -0.000072391135514  -0.011645009624476 0
force Pt  -0.000009435005757   0.000107123029334   0.088179753470413 0
force Pt   0.000132492098828  -0.000023441174072   0.090298398673894 0
force Pt   0.000077406563159  -0.000107943438662   0.090100280142382 0
force Pt  -0.000087530185615   0.000050809655949   0.087420574449172 0
force Pt  -0.000184415399611   0.000222643409778  -0.007133689565485 1
force Pt  -0.000398150864260   0.000297330546478  -0.006958448388039 1
force Pt  -0.000301655705038   0.000273610410246   0.001508862014426 1
force Pt  -0.000170240705695   0.000153749544615  -0.002445547475112 1
force Pt  -0.000442311635876  -0.000394795977510  -0.071032436898606 1
force Pt   0.000050730059512  -0.000390588140264  -0.071269962816640 1
force Pt   0.000881094798250  -0.000594262499898  -0.068394052483857 1
force Pt   0.000520894900652  -0.000068841054633  -0.069123501576023 1
force Pt  -0.000423139625161   0.000901290187126   0.018246391686999 1
force Pt   0.000844738235105  -0.000667250605588   0.009957695822068 1
force Pt   0.000044607185273  -0.000241042516294   0.004418037597466 1
force Pt  -0.000606622494911   0.000042642916057   0.005868498009148 1

# Energy components:
   Eewald =   -31134.6894649402493087
       EH =   -29601.7780806022892648
     Eloc =    58595.1570530123572098
      Enl =      -15.8114763689538691
      Exc =     -575.8322502395151332
 Exc_core =      324.9917243417948498
       KE =      588.6492977876887380
-------------------------------------
     Etot =    -1819.3131970091662879
       TS =        0.2391155199825101
-------------------------------------
        F =    -1819.5523125291488213

IonicMinimize: Iter:   1  F: -1819.552312529148821  |grad|_K:  4.896e-03  alpha:  1.000e+00  linmin: -5.930e-02  t[s]:  46896.12

#--- Lowdin population analysis ---
# oxidation-state H +0.191 +0.418
# oxidation-state C +0.442
# oxidation-state O -0.355 -0.394
# oxidation-state Pt +0.007 +0.007 +0.007 +0.007 +0.011 +0.011 +0.011 +0.011 +0.015 +0.015 +0.015 +0.015 +0.011 +0.011 +0.011 +0.012 +0.005 -0.005 -0.015 -0.020


-------- Electronic minimization -----------
	FillingsUpdate:  mu: -0.207809941  nElectrons: 338.000000
ElecMinimize: Iter:   0  F: -1819.544825357888158  |grad|_K:  2.088e-05  alpha:  1.000e+00
	FillingsUpdate:  mu: -0.204010052  nElectrons: 338.000000
	SubspaceRotationAdjust: set factor to 0.0414
ElecMinimize: Iter:   1  F: -1819.552256622999948  |grad|_K:  5.264e-06  alpha:  3.836e-01  linmin:  5.535e-04  t[s]:  47579.99
	FillingsUpdate:  mu: -0.205717297  nElectrons: 338.000000
	SubspaceRotationAdjust: set factor to 0.0329
ElecMinimize: Iter:   2  F: -1819.552645789623057  |grad|_K:  3.333e-06  alpha:  3.161e-01  linmin: -2.201e-05  t[s]:  47965.95
	FillingsUpdate:  mu: -0.206147807  nElectrons: 338.000000
	SubspaceRotationAdjust: set factor to 0.0203
ElecMinimize: Iter:   3  F: -1819.552726751979662  |grad|_K:  1.799e-06  alpha:  1.640e-01  linmin:  1.304e-06  t[s]:  48351.78
	FillingsUpdate:  mu: -0.205773797  nElectrons: 338.000000
	SubspaceRotationAdjust: set factor to 0.034
ElecMinimize: Iter:   4  F: -1819.552786838903330  |grad|_K:  1.025e-06  alpha:  4.177e-01  linmin: -6.823e-06  t[s]:  48738.51
	FillingsUpdate:  mu: -0.205784173  nElectrons: 338.000000
	SubspaceRotationAdjust: set factor to 0.0264
ElecMinimize: Iter:   5  F: -1819.552808662862617  |grad|_K:  1.046e-06  alpha:  4.674e-01  linmin: -9.381e-06  t[s]:  49123.20
	FillingsUpdate:  mu: -0.205906149  nElectrons: 338.000000
	SubspaceRotationAdjust: set factor to 0.0247
ElecMinimize: Iter:   6  F: -1819.552827474877404  |grad|_K:  1.144e-06  alpha:  3.865e-01  linmin:  3.220e-07  t[s]:  49511.88
	FillingsUpdate:  mu: -0.206124596  nElectrons: 338.000000
	SubspaceRotationAdjust: set factor to 0.0287
ElecMinimize: Iter:   7  F: -1819.552872375149491  |grad|_K:  1.351e-06  alpha:  7.712e-01  linmin:  5.493e-07  t[s]:  49896.11
	FillingsUpdate:  mu: -0.205954614  nElectrons: 338.000000
	SubspaceRotationAdjust: set factor to 0.0273
ElecMinimize: Iter:   8  F: -1819.552948176582731  |grad|_K:  2.176e-06  alpha:  9.347e-01  linmin: -6.261e-06  t[s]:  50288.97
	FillingsUpdate:  mu: -0.206075240  nElectrons: 338.000000
	SubspaceRotationAdjust: set factor to 0.0204
ElecMinimize: Iter:   9  F: -1819.553017295371546  |grad|_K:  1.735e-06  alpha:  3.274e-01  linmin: -2.814e-05  t[s]:  50675.18
	FillingsUpdate:  mu: -0.206402598  nElectrons: 338.000000
	SubspaceRotationAdjust: set factor to 0.023
ElecMinimize: Iter:  10  F: -1819.553084362109075  |grad|_K:  1.272e-06  alpha:  5.003e-01  linmin:  5.643e-06  t[s]:  51061.16
	FillingsUpdate:  mu: -0.206409987  nElectrons: 338.000000
	SubspaceRotationAdjust: set factor to 0.0202
ElecMinimize: Iter:  11  F: -1819.553113417641498  |grad|_K:  8.618e-07  alpha:  4.042e-01  linmin: -1.816e-06  t[s]:  51439.97
	FillingsUpdate:  mu: -0.206308562  nElectrons: 338.000000
	SubspaceRotationAdjust: set factor to 0.016
ElecMinimize: Iter:  12  F: -1819.553123114019854  |grad|_K:  5.137e-07  alpha:  2.937e-01  linmin: -2.589e-06  t[s]:  51830.60
	FillingsUpdate:  mu: -0.206230838  nElectrons: 338.000000
	SubspaceRotationAdjust: set factor to 0.0209
ElecMinimize: Iter:  13  F: -1819.553128034059455  |grad|_K:  3.081e-07  alpha:  4.195e-01  linmin: -2.838e-06  t[s]:  52215.10
	FillingsUpdate:  mu: -0.206255796  nElectrons: 338.000000
	SubspaceRotationAdjust: set factor to 0.0232
ElecMinimize: Iter:  14  F: -1819.553129817708850  |grad|_K:  2.504e-07  alpha:  4.225e-01  linmin: -1.650e-05  t[s]:  52598.64
	FillingsUpdate:  mu: -0.206226274  nElectrons: 338.000000
	SubspaceRotationAdjust: set factor to 0.027
ElecMinimize: Iter:  15  F: -1819.553131131156078  |grad|_K:  2.340e-07  alpha:  4.706e-01  linmin: -1.572e-05  t[s]:  52982.79
	FillingsUpdate:  mu: -0.206078454  nElectrons: 338.000000
	SubspaceRotationAdjust: set factor to 0.0314
ElecMinimize: Iter:  16  F: -1819.553132918151505  |grad|_K:  2.883e-07  alpha:  7.335e-01  linmin: -2.456e-06  t[s]:  53372.28
	FillingsUpdate:  mu: -0.205949030  nElectrons: 338.000000
	SubspaceRotationAdjust: set factor to 0.0346
ElecMinimize: Iter:  17  F: -1819.553135644347094  |grad|_K:  3.705e-07  alpha:  7.377e-01  linmin: -1.290e-06  t[s]:  53754.33
	FillingsUpdate:  mu: -0.205885256  nElectrons: 338.000000
	SubspaceRotationAdjust: set factor to 0.0351
ElecMinimize: Iter:  18  F: -1819.553139456141253  |grad|_K:  4.177e-07  alpha:  6.246e-01  linmin:  9.257e-07  t[s]:  54134.67
	FillingsUpdate:  mu: -0.205821602  nElectrons: 338.000000
	SubspaceRotationAdjust: set factor to 0.0286
ElecMinimize: Iter:  19  F: -1819.553142343676882  |grad|_K:  4.202e-07  alpha:  3.725e-01  linmin:  8.389e-07  t[s]:  54518.27
	FillingsUpdate:  mu: -0.205756381  nElectrons: 338.000000
	SubspaceRotationAdjust: set factor to 0.0262
ElecMinimize: Iter:  20  F: -1819.553144945770100  |grad|_K:  2.951e-07  alpha:  3.317e-01  linmin:  2.558e-06  t[s]:  54899.58
	FillingsUpdate:  mu: -0.205752778  nElectrons: 338.000000
	SubspaceRotationAdjust: set factor to 0.0334
ElecMinimize: Iter:  21  F: -1819.553146802879382  |grad|_K:  2.206e-07  alpha:  4.797e-01  linmin: -1.822e-07  t[s]:  55286.56
	FillingsUpdate:  mu: -0.205796969  nElectrons: 338.000000
	SubspaceRotationAdjust: set factor to 0.0383
ElecMinimize: Iter:  22  F: -1819.553147732684693  |grad|_K:  2.008e-07  alpha:  4.296e-01  linmin:  2.300e-06  t[s]:  55672.02
	FillingsUpdate:  mu: -0.205866944  nElectrons: 338.000000
	SubspaceRotationAdjust: set factor to 0.0371
ElecMinimize: Iter:  23  F: -1819.553148388936506  |grad|_K:  1.978e-07  alpha:  3.660e-01  linmin: -5.739e-06  t[s]:  56053.10
	FillingsUpdate:  mu: -0.205945576  nElectrons: 338.000000
	SubspaceRotationAdjust: set factor to 0.0366
ElecMinimize: Iter:  24  F: -1819.553148986270344  |grad|_K:  1.687e-07  alpha:  3.431e-01  linmin: -4.845e-06  t[s]:  56435.13
	FillingsUpdate:  mu: -0.206001587  nElectrons: 338.000000
	SubspaceRotationAdjust: set factor to 0.0398
ElecMinimize: Iter:  25  F: -1819.553149590908788  |grad|_K:  1.416e-07  alpha:  4.773e-01  linmin: -6.667e-06  t[s]:  56820.64
	FillingsUpdate:  mu: -0.206030576  nElectrons: 338.000000
	SubspaceRotationAdjust: set factor to 0.0419
ElecMinimize: Iter:  26  F: -1819.553149995299009  |grad|_K:  1.119e-07  alpha:  4.525e-01  linmin:  5.281e-06  t[s]:  57203.86
	FillingsUpdate:  mu: -0.206054320  nElectrons: 338.000000
	SubspaceRotationAdjust: set factor to 0.0381
ElecMinimize: Iter:  27  F: -1819.553150205844759  |grad|_K:  9.519e-08  alpha:  3.805e-01  linmin: -1.111e-05  t[s]:  57588.88
	FillingsUpdate:  mu: -0.206062252  nElectrons: 338.000000
	SubspaceRotationAdjust: set factor to 0.0286
ElecMinimize: Iter:  28  F: -1819.553150305074269  |grad|_K:  7.160e-08  alpha:  2.444e-01  linmin:  2.718e-05  t[s]:  57974.67
	FillingsUpdate:  mu: -0.206058614  nElectrons: 338.000000
	SubspaceRotationAdjust: set factor to 0.0299
ElecMinimize: Iter:  29  F: -1819.553150372437813  |grad|_K:  4.541e-08  alpha:  2.990e-01  linmin:  1.523e-05  t[s]:  58357.77
	FillingsUpdate:  mu: -0.206052157  nElectrons: 338.000000
	SubspaceRotationAdjust: set factor to 0.038
ElecMinimize: Iter:  30  F: -1819.553150411149318  |grad|_K:  3.272e-08  alpha:  4.203e-01  linmin:  4.310e-05  t[s]:  58746.73
	FillingsUpdate:  mu: -0.206049921  nElectrons: 338.000000
	SubspaceRotationAdjust: set factor to 0.0368
ElecMinimize: Iter:  31  F: -1819.553150430259848  |grad|_K:  3.017e-08  alpha:  3.829e-01  linmin: -1.501e-04  t[s]:  59129.37
	FillingsUpdate:  mu: -0.206046483  nElectrons: 338.000000
	SubspaceRotationAdjust: set factor to 0.0368
ElecMinimize: Iter:  32  F: -1819.553150442802234  |grad|_K:  2.893e-08  alpha:  3.150e-01  linmin: -1.035e-04  t[s]:  59512.67
	FillingsUpdate:  mu: -0.206039669  nElectrons: 338.000000
	SubspaceRotationAdjust: set factor to 0.0408
ElecMinimize: Iter:  33  F: -1819.553150459826156  |grad|_K:  2.916e-08  alpha:  4.728e-01  linmin:  8.279e-05  t[s]:  59898.30
	FillingsUpdate:  mu: -0.206033823  nElectrons: 338.000000
	SubspaceRotationAdjust: set factor to 0.0475
ElecMinimize: Iter:  34  F: -1819.553150481698822  |grad|_K:  3.061e-08  alpha:  6.144e-01  linmin:  4.551e-06  t[s]:  60285.95
	FillingsUpdate:  mu: -0.206044268  nElectrons: 338.000000
	SubspaceRotationAdjust: set factor to 0.0536
ElecMinimize: Iter:  35  F: -1819.553150505938675  |grad|_K:  3.280e-08  alpha:  5.878e-01  linmin:  4.545e-05  t[s]:  60672.58
	FillingsUpdate:  mu: -0.206059422  nElectrons: 338.000000
	SubspaceRotationAdjust: set factor to 0.0585
ElecMinimize: Iter:  36  F: -1819.553150527672642  |grad|_K:  2.722e-08  alpha:  4.795e-01  linmin: -2.496e-05  t[s]:  61058.30
	FillingsUpdate:  mu: -0.206063799  nElectrons: 338.000000
	SubspaceRotationAdjust: set factor to 0.0595
ElecMinimize: Iter:  37  F: -1819.553150542116100  |grad|_K:  2.563e-08  alpha:  4.434e-01  linmin:  1.772e-05  t[s]:  61444.35
	FillingsUpdate:  mu: -0.206067686  nElectrons: 338.000000
	SubspaceRotationAdjust: set factor to 0.046
ElecMinimize: Iter:  38  F: -1819.553150548538724  |grad|_K:  2.440e-08  alpha:  2.008e-01  linmin:  7.393e-05  t[s]:  61828.67
	FillingsUpdate:  mu: -0.206073457  nElectrons: 338.000000
	SubspaceRotationAdjust: set factor to 0.0445
ElecMinimize: Iter:  39  F: -1819.553150553888827  |grad|_K:  1.506e-08  alpha:  2.070e-01  linmin:  5.933e-05  t[s]:  62211.76
ElecMinimize: Converged (|Delta F|<1.000000e-08 for 2 iters).
Setting wave functions to eigenvectors of Hamiltonian

# Ionic positions in lattice coordinates:
ion H   0.649131732321028   0.424761837628335   0.361991361425820 1
ion H   0.490653631303122   0.841535950590717   0.361961967963195 1
ion C   0.497615157363642   0.504579722465716   0.361965026777588 1
ion O   0.245284761792488   0.366392004312507   0.362015396389645 1
ion O   0.634316295462128   0.781750265918261   0.362035499144733 1
ion Pt   0.333300000000000   0.166700000000000  -0.200100000000000 0
ion Pt   0.333300000000000   0.666700000000000  -0.200100000000000 0
ion Pt   0.833300000000000   0.166700000000000  -0.200100000000000 0
ion Pt   0.833300000000000   0.666700000000000  -0.200100000000000 0
ion Pt   0.000000000000000   0.000000000000000  -0.100000000000000 0
ion Pt   0.000000000000000   0.500000000000000  -0.100000000000000 0
ion Pt   0.500000000000000   0.000000000000000  -0.100000000000000 0
ion Pt   0.500000000000000   0.500000000000000  -0.100000000000000 0
ion Pt   0.166698534581589   0.333303122149685  -0.000005306927020 1
ion Pt   0.166693589512461   0.833302996965811  -0.000005425835975 1
ion Pt   0.666695556191171   0.333303268811268   0.000004590316326 1
ion Pt   0.666697802999412   0.833301496956423  -0.000000274371113 1
ion Pt   0.333282445376634   0.166683860777512   0.099912314747480 1
ion Pt   0.333295639023317   0.666690324237317   0.099912252981863 1
ion Pt   0.833315858176504   0.166695993594041   0.099915227237332 1
ion Pt   0.833312791745140   0.666705861655533   0.099914278098149 1
ion Pt  -0.000000538606333   0.000017837036176   0.200125988283442 1
ion Pt   0.000014677744595   0.499994336111125   0.200114573833159 1
ion Pt   0.499998593979785  -0.000007263521902   0.200108141867386 1
ion Pt   0.499985133563526   0.499995394065549   0.200110929112348 1


# Forces in Lattice coordinates:
force H  -0.085795720353891   0.064035544682175  -0.010286833927922 1
force H   0.103157499339640  -0.097764260446686  -0.031129107523001 1
force C  -0.065623121104810   0.024958293399501  -0.018947248213609 1
force O   0.064450614283624  -0.103023138231835   0.005840435346183 1
force O  -0.014617870051092   0.110589372457996   0.025581693839115 1
force Pt   0.000135422418540  -0.000069717398818  -0.014154018528431 0
force Pt   0.000046089469243   0.000001467852453  -0.015162326290076 0
force Pt  -0.000010367896753   0.000019876763165  -0.013124604803394 0
force Pt   0.000058417748689  -0.000073504853608  -0.013496899927088 0
force Pt  -0.000031578306563   0.000116860512266   0.084116149687467 0
force Pt   0.000109516507663  -0.000022884064308   0.086312253273430 0
force Pt   0.000085305346305  -0.000095336916154   0.086248207810913 0
force Pt  -0.000072574575103   0.000046676779706   0.083523895104654 0
force Pt  -0.000191757598524   0.000231647706718  -0.015305676135995 1
force Pt  -0.000353116163794   0.000250018878280  -0.015197954400782 1
force Pt  -0.000274299142880   0.000242480568742  -0.007560192561102 1
force Pt  -0.000183662677921   0.000161428997862  -0.011022548518989 1
force Pt  -0.000408338624343  -0.000388587564677  -0.065529048550294 1
force Pt   0.000058255827335  -0.000366863983295  -0.065831735940434 1
force Pt   0.000822766833032  -0.000567931995302  -0.062810665804407 1
force Pt   0.000483153811088  -0.000066966475203  -0.063072111025077 1
force Pt  -0.000354286034435   0.000732355116316   0.013911888739253 1
force Pt   0.000709409833521  -0.000524892532714   0.005717601353262 1
force Pt   0.000007350527989  -0.000211377753716  -0.000588413776839 1
force Pt  -0.000483305225649   0.000012171784814   0.003009436518098 1

# Energy components:
   Eewald =   -31134.3370789981563576
       EH =   -29601.4612913488563208
     Eloc =    58594.5149359905335587
      Enl =      -15.8201213416591830
      Exc =     -575.8216237996672362
 Exc_core =      324.9917247302075225
       KE =      588.6193845988098019
-------------------------------------
     Etot =    -1819.3140701687846104
       TS =        0.2390803851041361
-------------------------------------
        F =    -1819.5531505538888268

IonicMinimize: Iter:   2  F: -1819.553150553888827  |grad|_K:  3.055e-03  alpha:  1.000e+00  linmin: -6.721e-01  t[s]:  62274.40

#--- Lowdin population analysis ---
# oxidation-state H +0.191 +0.419
# oxidation-state C +0.439
# oxidation-state O -0.358 -0.391
# oxidation-state Pt +0.009 +0.009 +0.009 +0.009 +0.012 +0.012 +0.012 +0.012 +0.015 +0.015 +0.015 +0.015 +0.011 +0.010 +0.011 +0.012 +0.003 -0.006 -0.017 -0.022


-------- Electronic minimization -----------
	FillingsUpdate:  mu: -0.208422354  nElectrons: 338.000000
ElecMinimize: Iter:   0  F: -1819.532975336480831  |grad|_K:  3.446e-05  alpha:  1.000e+00
	FillingsUpdate:  mu: -0.190469553  nElectrons: 338.000000
	SubspaceRotationAdjust: set factor to 0.0294
ElecMinimize: Iter:   1  F: -1819.548188163407303  |grad|_K:  2.480e-05  alpha:  2.881e-01  linmin: -8.912e-05  t[s]:  62952.09
	FillingsUpdate:  mu: -0.202689123  nElectrons: 338.000000
	SubspaceRotationAdjust: set factor to 0.017
ElecMinimize: Iter:   2  F: -1819.551802549050308  |grad|_K:  6.453e-06  alpha:  1.322e-01  linmin: -3.228e-05  t[s]:  63338.51
	FillingsUpdate:  mu: -0.205999708  nElectrons: 338.000000
	SubspaceRotationAdjust: set factor to 0.0219
ElecMinimize: Iter:   3  F: -1819.552486555584892  |grad|_K:  2.892e-06  alpha:  3.695e-01  linmin:  3.985e-05  t[s]:  63725.67
	FillingsUpdate:  mu: -0.205943649  nElectrons: 338.000000
	SubspaceRotationAdjust: set factor to 0.021
ElecMinimize: Iter:   4  F: -1819.552638552090457  |grad|_K:  1.868e-06  alpha:  4.089e-01  linmin: -7.939e-06  t[s]:  64111.00
	FillingsUpdate:  mu: -0.205729706  nElectrons: 338.000000
	SubspaceRotationAdjust: set factor to 0.0213
ElecMinimize: Iter:   5  F: -1819.552698010038512  |grad|_K:  1.415e-06  alpha:  3.832e-01  linmin: -5.445e-06  t[s]:  64493.42
	FillingsUpdate:  mu: -0.205932195  nElectrons: 338.000000
	SubspaceRotationAdjust: set factor to 0.0259
ElecMinimize: Iter:   6  F: -1819.552756627069130  |grad|_K:  1.525e-06  alpha:  6.584e-01  linmin:  7.040e-06  t[s]:  64875.52
	FillingsUpdate:  mu: -0.206629831  nElectrons: 338.000000
	SubspaceRotationAdjust: set factor to 0.0294
ElecMinimize: Iter:   7  F: -1819.552863443645037  |grad|_K:  2.103e-06  alpha:  1.034e+00  linmin:  7.706e-06  t[s]:  65260.39
	FillingsUpdate:  mu: -0.206894870  nElectrons: 338.000000
	SubspaceRotationAdjust: set factor to 0.0296
ElecMinimize: Iter:   8  F: -1819.553103516798274  |grad|_K:  3.357e-06  alpha:  1.221e+00  linmin: -8.359e-06  t[s]:  65645.29
	FillingsUpdate:  mu: -0.207160573  nElectrons: 338.000000
	SubspaceRotationAdjust: set factor to 0.0223
ElecMinimize: Iter:   9  F: -1819.553303372650362  |grad|_K:  3.342e-06  alpha:  3.955e-01  linmin: -8.839e-05  t[s]:  66029.06
	FillingsUpdate:  mu: -0.207769549  nElectrons: 338.000000
	SubspaceRotationAdjust: set factor to 0.0197
ElecMinimize: Iter:  10  F: -1819.553514109464686  |grad|_K:  2.309e-06  alpha:  4.218e-01  linmin: -1.762e-05  t[s]:  66417.82
	FillingsUpdate:  mu: -0.207861207  nElectrons: 338.000000
	SubspaceRotationAdjust: set factor to 0.023
ElecMinimize: Iter:  11  F: -1819.553630078539754  |grad|_K:  1.357e-06  alpha:  4.890e-01  linmin: -5.096e-07  t[s]:  66806.94
	FillingsUpdate:  mu: -0.207623856  nElectrons: 338.000000
	SubspaceRotationAdjust: set factor to 0.0213
ElecMinimize: Iter:  12  F: -1819.553665465795348  |grad|_K:  9.673e-07  alpha:  4.323e-01  linmin:  6.435e-06  t[s]:  67193.58
	FillingsUpdate:  mu: -0.207432199  nElectrons: 338.000000
	SubspaceRotationAdjust: set factor to 0.0199
ElecMinimize: Iter:  13  F: -1819.553679785285340  |grad|_K:  6.447e-07  alpha:  3.444e-01  linmin: -1.579e-06  t[s]:  67579.60
	FillingsUpdate:  mu: -0.207239286  nElectrons: 338.000000
	SubspaceRotationAdjust: set factor to 0.0258
ElecMinimize: Iter:  14  F: -1819.553689174309739  |grad|_K:  4.764e-07  alpha:  5.083e-01  linmin:  1.247e-05  t[s]:  67966.60
	FillingsUpdate:  mu: -0.206978408  nElectrons: 338.000000
	SubspaceRotationAdjust: set factor to 0.0321
ElecMinimize: Iter:  15  F: -1819.553695438476097  |grad|_K:  4.870e-07  alpha:  6.212e-01  linmin: -4.280e-06  t[s]:  68357.64
	FillingsUpdate:  mu: -0.206660496  nElectrons: 338.000000
	SubspaceRotationAdjust: set factor to 0.0357
ElecMinimize: Iter:  16  F: -1819.553701639684050  |grad|_K:  5.701e-07  alpha:  5.882e-01  linmin:  7.220e-07  t[s]:  68739.79
	FillingsUpdate:  mu: -0.206384261  nElectrons: 338.000000
	SubspaceRotationAdjust: set factor to 0.0332
ElecMinimize: Iter:  17  F: -1819.553708696682179  |grad|_K:  7.022e-07  alpha:  4.883e-01  linmin: -1.887e-07  t[s]:  69122.22
	FillingsUpdate:  mu: -0.206176634  nElectrons: 338.000000
	SubspaceRotationAdjust: set factor to 0.0315
ElecMinimize: Iter:  18  F: -1819.553718156246077  |grad|_K:  6.868e-07  alpha:  4.316e-01  linmin: -5.920e-07  t[s]:  69509.13
	FillingsUpdate:  mu: -0.205976453  nElectrons: 338.000000
	SubspaceRotationAdjust: set factor to 0.0339
ElecMinimize: Iter:  19  F: -1819.553731438825253  |grad|_K:  6.639e-07  alpha:  6.337e-01  linmin:  4.659e-06  t[s]:  69891.48
	FillingsUpdate:  mu: -0.205862601  nElectrons: 338.000000
	SubspaceRotationAdjust: set factor to 0.0362
ElecMinimize: Iter:  20  F: -1819.553743145241697  |grad|_K:  5.925e-07  alpha:  5.978e-01  linmin:  6.423e-07  t[s]:  70277.36
	FillingsUpdate:  mu: -0.205921424  nElectrons: 338.000000
	SubspaceRotationAdjust: set factor to 0.0342
ElecMinimize: Iter:  21  F: -1819.553749566514398  |grad|_K:  4.837e-07  alpha:  4.114e-01  linmin:  1.332e-06  t[s]:  70661.58
	FillingsUpdate:  mu: -0.206030574  nElectrons: 338.000000
	SubspaceRotationAdjust: set factor to 0.0258
ElecMinimize: Iter:  22  F: -1819.553752610770516  |grad|_K:  3.758e-07  alpha:  2.928e-01  linmin:  6.438e-07  t[s]:  71045.93
	FillingsUpdate:  mu: -0.206124616  nElectrons: 338.000000
	SubspaceRotationAdjust: set factor to 0.0235
ElecMinimize: Iter:  23  F: -1819.553754509739747  |grad|_K:  2.230e-07  alpha:  3.025e-01  linmin: -6.566e-06  t[s]:  71430.12
	FillingsUpdate:  mu: -0.206160806  nElectrons: 338.000000
	SubspaceRotationAdjust: set factor to 0.0292
ElecMinimize: Iter:  24  F: -1819.553755445184834  |grad|_K:  1.453e-07  alpha:  4.224e-01  linmin: -2.306e-05  t[s]:  71818.43
	FillingsUpdate:  mu: -0.206193416  nElectrons: 338.000000
	SubspaceRotationAdjust: set factor to 0.0326
ElecMinimize: Iter:  25  F: -1819.553755838767984  |grad|_K:  1.159e-07  alpha:  4.185e-01  linmin: -1.272e-05  t[s]:  72204.67
	FillingsUpdate:  mu: -0.206236939  nElectrons: 338.000000
	SubspaceRotationAdjust: set factor to 0.0296
ElecMinimize: Iter:  26  F: -1819.553756075839146  |grad|_K:  1.141e-07  alpha:  3.975e-01  linmin:  4.757e-06  t[s]:  72590.47
	FillingsUpdate:  mu: -0.206287416  nElectrons: 338.000000
	SubspaceRotationAdjust: set factor to 0.0332
ElecMinimize: Iter:  27  F: -1819.553756317344323  |grad|_K:  1.062e-07  alpha:  4.174e-01  linmin: -3.243e-06  t[s]:  72979.21
	FillingsUpdate:  mu: -0.206332126  nElectrons: 338.000000
	SubspaceRotationAdjust: set factor to 0.0384
ElecMinimize: Iter:  28  F: -1819.553756643766292  |grad|_K:  1.159e-07  alpha:  6.506e-01  linmin:  9.128e-06  t[s]:  73365.48
	FillingsUpdate:  mu: -0.206380186  nElectrons: 338.000000
	SubspaceRotationAdjust: set factor to 0.043
ElecMinimize: Iter:  29  F: -1819.553757052295396  |grad|_K:  1.184e-07  alpha:  6.868e-01  linmin:  7.488e-07  t[s]:  73754.55
	FillingsUpdate:  mu: -0.206430842  nElectrons: 338.000000
	SubspaceRotationAdjust: set factor to 0.0433
ElecMinimize: Iter:  30  F: -1819.553757377313104  |grad|_K:  1.210e-07  alpha:  5.229e-01  linmin:  4.094e-06  t[s]:  74140.40
	FillingsUpdate:  mu: -0.206450328  nElectrons: 338.000000
	SubspaceRotationAdjust: set factor to 0.0341
ElecMinimize: Iter:  31  F: -1819.553757540111064  |grad|_K:  1.059e-07  alpha:  2.491e-01  linmin:  1.128e-05  t[s]:  74526.45
	FillingsUpdate:  mu: -0.206463107  nElectrons: 338.000000
	SubspaceRotationAdjust: set factor to 0.0361
ElecMinimize: Iter:  32  F: -1819.553757688697715  |grad|_K:  7.299e-08  alpha:  2.983e-01  linmin: -3.204e-05  t[s]:  74913.52
	FillingsUpdate:  mu: -0.206474125  nElectrons: 338.000000
	SubspaceRotationAdjust: set factor to 0.0494
ElecMinimize: Iter:  33  F: -1819.553757801657184  |grad|_K:  5.882e-08  alpha:  4.851e-01  linmin:  2.152e-04  t[s]:  75300.41
	FillingsUpdate:  mu: -0.206486333  nElectrons: 338.000000
	SubspaceRotationAdjust: set factor to 0.0437
[...]
FluidMinimize: Iter:  90  G: -0.030729585429043  |grad|_K:  3.339e-05  alpha:  2.754e-03  linmin:  2.135e-03  cgtest:  5.782e-01  t[s]:  24653.33
FluidMinimize: Iter:  91  G: -0.030731704248621  |grad|_K:  4.976e-05  alpha:  2.097e-03  linmin:  3.279e-04  cgtest:  1.164e-03  t[s]:  24653.84
FluidMinimize: Iter:  92  G: -0.030736175701645  |grad|_K:  1.927e-05  alpha:  2.008e-03  linmin: -3.259e-04  cgtest:  2.617e-01  t[s]:  24654.34
FluidMinimize: Iter:  93  G: -0.030737192209032  |grad|_K:  3.070e-05  alpha:  3.013e-03  linmin: -7.123e-04  cgtest:  3.399e-03  t[s]:  24654.85
FluidMinimize: Iter:  94  G: -0.030738274887002  |grad|_K:  1.400e-05  alpha:  1.223e-03  linmin: -1.326e-03  cgtest: -5.352e-03  t[s]:  24655.35
FluidMinimize: 	Predicted alpha/alphaT>3.000000, increasing alphaT to 3.667830e-03.
FluidMinimize: 	Predicted alpha/alphaT>3.000000, increasing alphaT to 1.100349e-02.
FluidMinimize: Iter:  95  G: -0.030740467834548  |grad|_K:  2.343e-05  alpha:  1.214e-02  linmin: -9.575e-04  cgtest: -9.100e-03  t[s]:  24656.31
FluidMinimize: Iter:  96  G: -0.030741527302299  |grad|_K:  3.390e-05  alpha:  2.213e-03  linmin:  3.241e-03  cgtest: -5.184e-02  t[s]:  24656.81
FluidMinimize: Iter:  97  G: -0.030743275708620  |grad|_K:  2.007e-05  alpha:  1.741e-03  linmin:  6.838e-04  cgtest:  2.159e-01  t[s]:  24657.31
FluidMinimize: 	Predicted alpha/alphaT>3.000000, increasing alphaT to 5.223279e-03.
FluidMinimize: Iter:  98  G: -0.030745228745984  |grad|_K:  4.442e-05  alpha:  5.398e-03  linmin:  6.885e-04  cgtest: -1.906e-03  t[s]:  24658.03
FluidMinimize: Iter:  99  G: -0.030747318229942  |grad|_K:  2.493e-05  alpha:  1.379e-03  linmin:  2.389e-02  cgtest: -2.122e-01  t[s]:  24658.54
FluidMinimize: 	Predicted alpha/alphaT>3.000000, increasing alphaT to 4.137667e-03.
FluidMinimize: Iter: 100  G: -0.030750326771225  |grad|_K:  2.422e-05  alpha:  6.524e-03  linmin:  3.717e-03  cgtest:  4.158e-01  t[s]:  24659.28
FluidMinimize: None of the convergence criteria satisfied after 100 iterations.

Fluid minimization # 4 changed total free energy by -9.068740e-04 at t[s]:  24659.56

-------------------- Electronic Minimization # 4 ---------------------
	FillingsUpdate:  mu: -0.173600000  nElectrons: 338.506623
ElecMinimize: Iter:   0  G: -1760.811060238263963  |grad|_K:  1.369e-04  alpha:  1.000e+00
	FillingsUpdate:  mu: -0.173600000  nElectrons: 338.202646
	SubspaceRotationAdjust: set factor to 0.00867
ElecMinimize: Iter:   1  G: -1760.883103841962793  |grad|_K:  3.496e-05  alpha:  6.872e-02  linmin: -2.775e-01  t[s]:  25208.61
	FillingsUpdate:  mu: -0.173600000  nElectrons: 338.098963
	SubspaceRotationAdjust: set factor to 0.00896
ElecMinimize: Iter:   2  G: -1760.888063606566675  |grad|_K:  4.139e-06  alpha:  7.283e-02  linmin:  8.400e-03  t[s]:  25590.55
ElecMinimize: 	Predicted alpha/alphaT>3.000000, increasing alphaT to 2.184874e-01.
	FillingsUpdate:  mu: -0.173600000  nElectrons: 338.092968
	SubspaceRotationAdjust: set factor to 0.0125
ElecMinimize: Iter:   3  G: -1760.888355848325091  |grad|_K:  2.018e-06  alpha:  3.875e-01  linmin:  1.182e-03  t[s]:  26064.37
	FillingsUpdate:  mu: -0.173600000  nElectrons: 338.095059
	SubspaceRotationAdjust: set factor to 0.0135
ElecMinimize: Iter:   4  G: -1760.888456722121418  |grad|_K:  1.873e-06  alpha:  5.580e-01  linmin: -5.448e-05  t[s]:  26448.66
	FillingsUpdate:  mu: -0.173600000  nElectrons: 338.090793
	SubspaceRotationAdjust: set factor to 0.0111
ElecMinimize: Iter:   5  G: -1760.888533617767962  |grad|_K:  2.245e-06  alpha:  4.929e-01  linmin:  1.311e-04  t[s]:  26836.18
	FillingsUpdate:  mu: -0.173600000  nElectrons: 338.101399
	SubspaceRotationAdjust: set factor to 0.00817
ElecMinimize: Iter:   6  G: -1760.888597298371224  |grad|_K:  1.771e-06  alpha:  2.851e-01  linmin:  4.895e-05  t[s]:  27217.75
	FillingsUpdate:  mu: -0.173600000  nElectrons: 338.103037
	SubspaceRotationAdjust: set factor to 0.00939
ElecMinimize: Iter:   7  G: -1760.888680665821084  |grad|_K:  1.356e-06  alpha:  5.982e-01  linmin: -4.544e-05  t[s]:  27606.47
	FillingsUpdate:  mu: -0.173600000  nElectrons: 338.101763
	SubspaceRotationAdjust: set factor to 0.00895
ElecMinimize: Iter:   8  G: -1760.888715986368879  |grad|_K:  1.094e-06  alpha:  4.316e-01  linmin:  1.719e-05  t[s]:  27990.21
	FillingsUpdate:  mu: -0.173600000  nElectrons: 338.105746
	SubspaceRotationAdjust: set factor to 0.00726
ElecMinimize: Iter:   9  G: -1760.888733471471596  |grad|_K:  7.237e-07  alpha:  3.290e-01  linmin: -2.694e-05  t[s]:  28374.23
	FillingsUpdate:  mu: -0.173600000  nElectrons: 338.104309
	SubspaceRotationAdjust: set factor to 0.00858
ElecMinimize: Iter:  10  G: -1760.888743237461313  |grad|_K:  5.001e-07  alpha:  4.195e-01  linmin:  3.835e-06  t[s]:  28758.50
	FillingsUpdate:  mu: -0.173600000  nElectrons: 338.103994
	SubspaceRotationAdjust: set factor to 0.0101
ElecMinimize: Iter:  11  G: -1760.888749313383641  |grad|_K:  4.898e-07  alpha:  5.470e-01  linmin:  9.481e-05  t[s]:  29142.18
	FillingsUpdate:  mu: -0.173600000  nElectrons: 338.105727
	SubspaceRotationAdjust: set factor to 0.00957
ElecMinimize: Iter:  12  G: -1760.888754583950231  |grad|_K:  5.396e-07  alpha:  4.950e-01  linmin: -1.246e-06  t[s]:  29534.24
	FillingsUpdate:  mu: -0.173600000  nElectrons: 338.103626
	SubspaceRotationAdjust: set factor to 0.0093
ElecMinimize: Iter:  13  G: -1760.888761441724910  |grad|_K:  5.861e-07  alpha:  5.300e-01  linmin:  8.325e-06  t[s]:  29918.19
	FillingsUpdate:  mu: -0.173600000  nElectrons: 338.103925
	SubspaceRotationAdjust: set factor to 0.0106
ElecMinimize: Iter:  14  G: -1760.888772333283441  |grad|_K:  6.302e-07  alpha:  7.136e-01  linmin:  1.696e-05  t[s]:  30303.79
	FillingsUpdate:  mu: -0.173600000  nElectrons: 338.105308
	SubspaceRotationAdjust: set factor to 0.0108
ElecMinimize: Iter:  15  G: -1760.888783370110787  |grad|_K:  6.928e-07  alpha:  6.257e-01  linmin: -7.782e-06  t[s]:  30686.29
	FillingsUpdate:  mu: -0.173600000  nElectrons: 338.102681
	SubspaceRotationAdjust: set factor to 0.00865
ElecMinimize: Iter:  16  G: -1760.888790788326105  |grad|_K:  6.156e-07  alpha:  3.474e-01  linmin: -5.821e-06  t[s]:  31066.93
	FillingsUpdate:  mu: -0.173600000  nElectrons: 338.104420
	SubspaceRotationAdjust: set factor to 0.00967
ElecMinimize: Iter:  17  G: -1760.888798468166442  |grad|_K:  4.546e-07  alpha:  4.558e-01  linmin: -8.309e-06  t[s]:  31452.76
	FillingsUpdate:  mu: -0.173600000  nElectrons: 338.105301
	SubspaceRotationAdjust: set factor to 0.0121
ElecMinimize: Iter:  18  G: -1760.888803613547452  |grad|_K:  3.983e-07  alpha:  5.600e-01  linmin: -1.447e-05  t[s]:  31836.51
	FillingsUpdate:  mu: -0.173600000  nElectrons: 338.104333
	SubspaceRotationAdjust: set factor to 0.0108
ElecMinimize: Iter:  19  G: -1760.888806809925200  |grad|_K:  4.255e-07  alpha:  4.532e-01  linmin:  8.249e-06  t[s]:  32222.36
	FillingsUpdate:  mu: -0.173600000  nElectrons: 338.106344
	SubspaceRotationAdjust: set factor to 0.0102
ElecMinimize: Iter:  20  G: -1760.888810044491265  |grad|_K:  4.186e-07  alpha:  4.021e-01  linmin: -1.120e-06  t[s]:  32610.59
	FillingsUpdate:  mu: -0.173600000  nElectrons: 338.106370
	SubspaceRotationAdjust: set factor to 0.0116
ElecMinimize: Iter:  21  G: -1760.888814662122968  |grad|_K:  4.366e-07  alpha:  5.931e-01  linmin:  8.693e-06  t[s]:  32999.16
	FillingsUpdate:  mu: -0.173600000  nElectrons: 338.107008
	SubspaceRotationAdjust: set factor to 0.0131
ElecMinimize: Iter:  22  G: -1760.888821017537111  |grad|_K:  5.024e-07  alpha:  7.506e-01  linmin:  8.128e-06  t[s]:  33393.04
	FillingsUpdate:  mu: -0.173600000  nElectrons: 338.109658
	SubspaceRotationAdjust: set factor to 0.0115
ElecMinimize: Iter:  23  G: -1760.888826610674414  |grad|_K:  5.514e-07  alpha:  4.989e-01  linmin:  1.392e-06  t[s]:  33776.48
	FillingsUpdate:  mu: -0.173600000  nElectrons: 338.108391
	SubspaceRotationAdjust: set factor to 0.00821
ElecMinimize: Iter:  24  G: -1760.888830264327908  |grad|_K:  4.106e-07  alpha:  2.703e-01  linmin: -2.079e-06  t[s]:  34162.09
	FillingsUpdate:  mu: -0.173600000  nElectrons: 338.109309
	SubspaceRotationAdjust: set factor to 0.00984
ElecMinimize: Iter:  25  G: -1760.888833492965887  |grad|_K:  2.552e-07  alpha:  4.312e-01  linmin:  1.864e-05  t[s]:  34545.39
	FillingsUpdate:  mu: -0.173600000  nElectrons: 338.109908
	SubspaceRotationAdjust: set factor to 0.0101
ElecMinimize: Iter:  26  G: -1760.888834776466183  |grad|_K:  1.805e-07  alpha:  4.438e-01  linmin:  1.172e-05  t[s]:  34930.24
	FillingsUpdate:  mu: -0.173600000  nElectrons: 338.109314
	SubspaceRotationAdjust: set factor to 0.00881
ElecMinimize: Iter:  27  G: -1760.888835276303325  |grad|_K:  1.447e-07  alpha:  3.453e-01  linmin: -2.966e-05  t[s]:  35315.86
	FillingsUpdate:  mu: -0.173600000  nElectrons: 338.109625
	SubspaceRotationAdjust: set factor to 0.0106
ElecMinimize: Iter:  28  G: -1760.888835631160646  |grad|_K:  1.043e-07  alpha:  3.825e-01  linmin:  9.393e-05  t[s]:  35706.35
ElecMinimize: Converged (|Delta G|<7.277070e-07 for 2 iters).
Setting wave functions to eigenvectors of Hamiltonian

Electronic minimization # 4 changed total free energy by -2.666544e-04 at t[s]:  35722.56

---------------------- Fluid Minimization # 5 -----------------------
FluidMinimize: Iter:   0  G: -0.037244396034188  |grad|_K:  2.068e-04  alpha:  1.000e+00
FluidMinimize: Iter:   1  G: -0.037244396034188  |grad|_K:  2.068e-04  alpha:  1.946e-31  linmin: -1.737e-01  cgtest:  1.000e+00  t[s]:  35723.39
FluidMinimize: 	Step increased G by 8.326673e-17, reducing alpha to 1.946118e-32.
FluidMinimize: 	Step increased G by 7.632783e-17, reducing alpha to 1.946118e-33.
FluidMinimize: 	Step increased G by 7.632783e-17, reducing alpha to 1.946118e-34.
FluidMinimize: 	Step increased G by 7.632783e-17, reducing alpha to 1.946118e-35.
FluidMinimize: 	Step increased G by 7.632783e-17, reducing alpha to 1.946118e-36.
FluidMinimize: 	Step increased G by 7.632783e-17, reducing alpha to 1.946118e-37.
FluidMinimize: 	Step failed to reduce G after 6 attempts. Quitting step.
FluidMinimize: 	Undoing step.
FluidMinimize: 	Step failed: resetting search direction.
FluidMinimize: Iter:   2  G: -0.037244396034188  |grad|_K:  2.068e-04  alpha:  1.946e-37
FluidMinimize: Iter:   3  G: -0.037244396034188  |grad|_K:  2.068e-04  alpha:  1.946e-31  linmin: -1.737e-01  cgtest:  1.000e+00  t[s]:  35725.99
FluidMinimize: Encountered beta<0, resetting CG.
FluidMinimize: 	Step increased G by 6.938894e-18, reducing alpha to 1.946118e-32.
FluidMinimize: 	Step increased G by 6.938894e-18, reducing alpha to 1.946118e-33.
FluidMinimize: Iter:   4  G: -0.037244396034188  |grad|_K:  2.068e-04  alpha:  1.946e-33  linmin: -1.737e-01  cgtest:  1.000e+00  t[s]:  35727.05
FluidMinimize: Iter:   5  G: -0.037244396034188  |grad|_K:  2.068e-04  alpha:  1.946e-31  linmin: -1.737e-01  cgtest:  1.000e+00  t[s]:  35727.59
FluidMinimize: Encountered beta<0, resetting CG.
FluidMinimize: Iter:   6  G: -0.037244396034188  |grad|_K:  2.068e-04  alpha:  1.946e-31  linmin: -1.737e-01  cgtest:  1.000e+00  t[s]:  35728.12
FluidMinimize: Encountered beta<0, resetting CG.
FluidMinimize: 	Step increased G by 1.387779e-17, reducing alpha to 1.946118e-32.
FluidMinimize: 	Step increased G by 4.857226e-17, reducing alpha to 1.946118e-33.
FluidMinimize: 	Step increased G by 4.857226e-17, reducing alpha to 1.946118e-34.
FluidMinimize: 	Step increased G by 3.469447e-17, reducing alpha to 1.946118e-35.
FluidMinimize: 	Step increased G by 4.857226e-17, reducing alpha to 1.946118e-36.
FluidMinimize: 	Step increased G by 2.081668e-17, reducing alpha to 1.946118e-37.
FluidMinimize: 	Step failed to reduce G after 6 attempts. Quitting step.
FluidMinimize: 	Undoing step.
FluidMinimize: 	Step failed along negative gradient direction.
FluidMinimize: Probably at roundoff error limit. (Stopping)

Fluid minimization # 5 changed total free energy by -6.938894e-18 at t[s]:  35730.52

-------------------- Electronic Minimization # 5 ---------------------
	FillingsUpdate:  mu: -0.173600000  nElectrons: 338.044477
ElecMinimize: Iter:   0  G: -1760.887204891160536  |grad|_K:  1.433e-05  alpha:  1.000e+00
	FillingsUpdate:  mu: -0.173600000  nElectrons: 338.097588
	SubspaceRotationAdjust: set factor to 0.00579
ElecMinimize: Iter:   1  G: -1760.888473215924705  |grad|_K:  3.454e-06  alpha:  1.478e-01  linmin:  4.528e-02  t[s]:  36278.75
	FillingsUpdate:  mu: -0.173600000  nElectrons: 338.096775
	SubspaceRotationAdjust: set factor to 0.00754
ElecMinimize: Iter:   2  G: -1760.888662553175436  |grad|_K:  1.530e-06  alpha:  3.771e-01  linmin:  1.317e-03  t[s]:  36660.41
	FillingsUpdate:  mu: -0.173600000  nElectrons: 338.103295
	SubspaceRotationAdjust: set factor to 0.00786
ElecMinimize: Iter:   3  G: -1760.888711421044718  |grad|_K:  1.103e-06  alpha:  4.706e-01  linmin: -8.557e-04  t[s]:  37045.69
	FillingsUpdate:  mu: -0.173600000  nElectrons: 338.102421
	SubspaceRotationAdjust: set factor to 0.0087
ElecMinimize: Iter:   4  G: -1760.888744710945730  |grad|_K:  1.068e-06  alpha:  6.144e-01  linmin:  4.852e-04  t[s]:  37430.35
	FillingsUpdate:  mu: -0.173600000  nElectrons: 338.107110
	SubspaceRotationAdjust: set factor to 0.00824
ElecMinimize: Iter:   5  G: -1760.888780518347858  |grad|_K:  1.068e-06  alpha:  7.081e-01  linmin: -5.513e-04  t[s]:  37816.96
	FillingsUpdate:  mu: -0.173600000  nElectrons: 338.105136
	SubspaceRotationAdjust: set factor to 0.00677
ElecMinimize: Iter:   6  G: -1760.888808669257969  |grad|_K:  8.942e-07  alpha:  5.521e-01  linmin:  1.103e-04  t[s]:  38201.01
	FillingsUpdate:  mu: -0.173600000  nElectrons: 338.108610
	SubspaceRotationAdjust: set factor to 0.0045
ElecMinimize: Iter:   7  G: -1760.888825530201757  |grad|_K:  5.656e-07  alpha:  4.751e-01  linmin: -1.107e-04  t[s]:  38589.19
	FillingsUpdate:  mu: -0.173600000  nElectrons: 338.106720
	SubspaceRotationAdjust: set factor to 0.00308
ElecMinimize: Iter:   8  G: -1760.888832162201425  |grad|_K:  3.249e-07  alpha:  4.661e-01  linmin:  2.222e-05  t[s]:  38975.76
	FillingsUpdate:  mu: -0.173600000  nElectrons: 338.107313
	SubspaceRotationAdjust: set factor to 0.0037
ElecMinimize: Iter:   9  G: -1760.888834647460953  |grad|_K:  2.006e-07  alpha:  5.296e-01  linmin: -6.394e-05  t[s]:  39363.34
ElecMinimize: Converged (|Delta G|<9.068740e-06 for 2 iters).
Setting wave functions to eigenvectors of Hamiltonian

Electronic minimization # 5 changed total free energy by 9.836997e-07 at t[s]:  39380.48

Fluid<-->Electron self-consistency loop converged to 1.000000e-05 hartrees after 5 minimization pairs at t[s]:  39380.48.

# Ionic positions in lattice coordinates:
ion H   0.645688104109028   0.426427872801373   0.361946502149445 1
ion H   0.492314149636896   0.840258336581769   0.361848824526299 1
ion C   0.496824815700156   0.505975453463636   0.361919391513210 1
ion O   0.245331594219677   0.361671317935350   0.362026348898080 1
ion O   0.636927202392744   0.784646723619025   0.362116318251793 1
ion Pt   0.333300000000000   0.166700000000000  -0.200100000000000 0
ion Pt   0.333300000000000   0.666700000000000  -0.200100000000000 0
ion Pt   0.833300000000000   0.166700000000000  -0.200100000000000 0
ion Pt   0.833300000000000   0.666700000000000  -0.200100000000000 0
ion Pt   0.000000000000000   0.000000000000000  -0.100000000000000 0
ion Pt   0.000000000000000   0.500000000000000  -0.100000000000000 0
ion Pt   0.500000000000000   0.000000000000000  -0.100000000000000 0
ion Pt   0.500000000000000   0.500000000000000  -0.100000000000000 0
ion Pt   0.166690907254758   0.333314827839511  -0.000083338305943 1
ion Pt   0.166676077589475   0.833307928560103  -0.000084259630764 1
ion Pt   0.666683477531807   0.333310481213499  -0.000047595980689 1
ion Pt   0.666688160658059   0.833308254653238  -0.000064198802396 1
ion Pt   0.333239430340588   0.166639394579248   0.099700805003771 1
ion Pt   0.333287599594543   0.666661899839421   0.099697957765128 1
ion Pt   0.833355429486937   0.166682826661436   0.099712912733230 1
ion Pt   0.833344642812937   0.666714746804804   0.099712897356142 1
ion Pt  -0.000002779942238   0.000052665501463   0.200143677143037 1
ion Pt   0.000044869774352   0.499983932662140   0.200105444043616 1
ion Pt   0.499990702335293  -0.000022653201989   0.200075215810662 1
ion Pt   0.499957241324349   0.499981142118577   0.200092499305137 1


# Forces in Lattice coordinates:
force H  -0.011503482712593  -0.003581221184211  -0.015175869537060 1
force H  -0.036345329021240   0.074718129171669  -0.037256156312301 1
force C   0.089362495863882   0.010942285473540   0.009425690624945 1
force O  -0.029298857287747  -0.011139264017788   0.066897727017374 1
force O  -0.025077744170630  -0.058084893550288   0.039271128547695 1
force Pt   0.000000878041734  -0.000000614327725   0.021481463422760 0
force Pt   0.000036301222177  -0.000046610518735   0.021064494565758 0
force Pt   0.000144847361219  -0.000073715418791   0.022729890026822 0
force Pt   0.000064031803214  -0.000036813324535   0.021086056252999 0
force Pt  -0.000178460669125   0.000064992085124   0.066445877707424 0
force Pt  -0.000158926883014   0.000077693924526   0.069291221281397 0
force Pt   0.000153093529093  -0.000006938279964   0.069105583722695 0
force Pt   0.000159137058867  -0.000004378481123   0.065665967739350 0
force Pt  -0.000224236120672  -0.000039289785806  -0.025648642896420 1
force Pt  -0.000847550732089   0.000317786779775  -0.026384175232254 1
force Pt  -0.000139283846734   0.000571499850244  -0.025524182576740 1
force Pt   0.000483327901037  -0.000274879637412  -0.026156274711537 1
force Pt  -0.000442178542346   0.000187418731535  -0.037409954049535 1
force Pt   0.000503449325862  -0.000807105761613  -0.040253304762999 1
force Pt   0.000742985801185  -0.000660104219137  -0.035818392785760 1
force Pt  -0.000135670697989   0.000145184247608  -0.033974249721960 1
force Pt  -0.000094860567474  -0.000935196391815  -0.115039358190805 1
force Pt  -0.001079581075250   0.001418270191548  -0.120513987973482 1
force Pt  -0.000312518189812   0.000018874061983  -0.116208352007519 1
force Pt   0.001087496541124  -0.000238011947536  -0.087322133611180 1

# Energy components:
   A_diel =       -0.0367956220338324
   Eewald =    26794.6067898831497587
       EH =    28428.0710423404925677
     Eloc =   -57363.9637159088451881
      Enl =      -15.8112924341148631
      Exc =     -575.8686915278842662
 Exc_core =      324.9917248255447362
       KE =      588.6692746127808959
  MuShift =       -0.0044240352674192
-------------------------------------
     Etot =    -1819.3460878661796869
       TS =        0.2381764028894194
-------------------------------------
        F =    -1819.5842642690690809
      muN =      -58.6954296216080920
-------------------------------------
        G =    -1760.8888346474609534

IonicMinimize: Iter:   0  G: -1760.888834647460953  |grad|_K:  2.348e-03  t[s]:  39426.19
IonicMinimize: None of the convergence criteria satisfied after 0 iterations.

#--- Lowdin population analysis ---
# oxidation-state H +0.203 +0.463
# oxidation-state C +0.440
# oxidation-state O -0.396 -0.418
# oxidation-state Pt +0.007 +0.007 +0.007 +0.008 +0.024 +0.023 +0.022 +0.023 +0.011 +0.011 +0.011 +0.011 +0.009 +0.006 +0.008 +0.015 -0.027 -0.038 -0.045 -0.046


Dumping '111_4-Solvated.ionpos' ... done
Dumping '111_4-Solvated.n' ... done
Dumping '111_4-Solvated.eigStats' ... 
	eMin: -2.125235 at state 0 ( [ +0.000000 +0.000000 +0.000000 ] spin 0 )
	HOMO: -0.174083 at state 0 ( [ +0.000000 +0.000000 +0.000000 ] spin 0 )
	mu  : -0.173600
	LUMO: -0.173546 at state 5 ( [ +0.250000 +0.500000 +0.000000 ] spin 0 )
	eMax: +0.376531 at state 2 ( [ +0.000000 +0.500000 +0.000000 ] spin 0 )
	HOMO-LUMO gap: +0.000537
	Optical gap  : +0.001308 at state 0 ( [ +0.000000 +0.000000 +0.000000 ] spin 0 )
Dumping '111_4-Solvated.Ecomponents' ... done
End date and time: Mon Apr 29 10:27:29 2019  (Duration: 0-10:58:01.46)
Done!
