--------------------------------------------------------------------------
Initialization of PSM library failed.

  Error: PSM is in the finalized state
--------------------------------------------------------------------------
--------------------------------------------------------------------------
The OpenFabrics (openib) BTL failed to initialize while trying to
allocate some locked memory.  This typically can indicate that the
memlock limits are set too low.  For most HPC installations, the
memlock limits should be set to "unlimited".  The failure occured
here:

  Local host:    node2016
  OMPI source:   btl_openib.c:753
  Function:      ompi_free_list_init_ex_new()
  Device:        qib0
  Memlock limit: 65536

You may need to consult with your system administrator to get this
problem fixed.  This FAQ entry on the Open MPI web site may also be
helpful:

    http://www.open-mpi.org/faq/?category=openfabrics#ib-locked-pages
--------------------------------------------------------------------------

*************** JDFTx 1.4.2 (git hash 74b6e54) ***************

Start date and time: Thu May 30 13:56:17 2019
Executable /home/jfm343/JDFTXDIR/build/jdftx with command-line: -i Vacuum.in
Running on hosts (process indices):  node2016.physics.cornell.edu (0)
Divided in process groups (process indices):  0 (0)
Resource initialization completed at t[s]:      0.00
Run totals: 1 processes, 12 threads, 0 GPUs


Input parsed successfully to the following command list (including defaults):

basis kpoint-dependent
coords-type Lattice
core-overlap-check vector
coulomb-interaction Periodic
davidson-band-ratio 1.1
dump End State IonicPositions ElecDensity EigStats Ecomponents
dump-name 100_4-Vacuum.$VAR
elec-cutoff 20 100
elec-eigen-algo Davidson
elec-ex-corr gga-PBEsol
elec-smearing Fermi 0.01
electronic-minimize  \
	dirUpdateScheme      FletcherReeves \
	linminMethod         DirUpdateRecommended \
	nIterations          200 \
	history              15 \
	knormThreshold       0 \
	energyDiffThreshold  1e-08 \
	nEnergyDiff          2 \
	alphaTstart          1 \
	alphaTmin            1e-10 \
	updateTestStepSize   yes \
	alphaTreduceFactor   0.1 \
	alphaTincreaseFactor 3 \
	nAlphaAdjustMax      3 \
	wolfeEnergy          0.0001 \
	wolfeGradient        0.9 \
	fdTest               no
exchange-regularization WignerSeitzTruncated
fluid None
fluid-ex-corr lda-TF lda-PZ
fluid-gummel-loop 10 1.000000e-05
fluid-minimize  \
	dirUpdateScheme      PolakRibiere \
	linminMethod         DirUpdateRecommended \
	nIterations          100 \
	history              15 \
	knormThreshold       0 \
	energyDiffThreshold  0 \
	nEnergyDiff          2 \
	alphaTstart          1 \
	alphaTmin            1e-10 \
	updateTestStepSize   yes \
	alphaTreduceFactor   0.1 \
	alphaTincreaseFactor 3 \
	nAlphaAdjustMax      3 \
	wolfeEnergy          0.0001 \
	wolfeGradient        0.9 \
	fdTest               no
fluid-solvent H2O 55.338 ScalarEOS \
	epsBulk 78.4 \
	pMol 0.92466 \
	epsInf 1.77 \
	Pvap 1.06736e-10 \
	sigmaBulk 4.62e-05 \
	Rvdw 2.61727 \
	Res 1.42 \
	tauNuc 343133 \
	omegaEl 0.55124 \
	gammaEl 0.257245
forces-output-coords Positions
ion H   0.625750000000000   0.718020000000000   0.333030000000000 1
ion H   0.312900000000000   0.460100000000000   0.333030000000000 1
ion C   0.547480000000000   0.554610000000000   0.333030000000000 1
ion O   0.588530000000000   0.344120000000000   0.333030000000000 1
ion O   0.379680000000000   0.603660000000000   0.333040000000000 1
ion Pt   0.000000000000000   0.000000000000000  -0.166660000000000 0
ion Pt   0.000000000000000   0.500000000000000  -0.166660000000000 0
ion Pt   0.500000000000000   0.000000000000000  -0.166660000000000 0
ion Pt   0.500000000000000   0.500000000000000  -0.166660000000000 0
ion Pt   0.250000000000000   0.250000000000000  -0.083330000000000 0
ion Pt   0.250000000000000   0.750000000000000  -0.083330000000000 0
ion Pt   0.750000000000000   0.250000000000000  -0.083330000000000 0
ion Pt   0.750000000000000   0.750000000000000  -0.083330000000000 0
ion Pt   0.000000000000000   0.000000000000000   0.000000000000000 1
ion Pt   0.000000000000000   0.500000000000000   0.000000000000000 1
ion Pt   0.500000000000000   0.000000000000000   0.000000000000000 1
ion Pt   0.500000000000000   0.500000000000000   0.000000000000000 1
ion Pt   0.250000000000000   0.250000000000000   0.083330000000000 1
ion Pt   0.250000000000000   0.750000000000000   0.083330000000000 1
ion Pt   0.750000000000000   0.250000000000000   0.083330000000000 1
ion Pt   0.750000000000000   0.750000000000000   0.083330000000000 1
ion Pt   0.000000000000000   0.000000000000000   0.166660000000000 1
ion Pt   0.000000000000000   0.500000000000000   0.166660000000000 1
ion Pt   0.500000000000000   0.000000000000000   0.166660000000000 1
ion Pt   0.500000000000000   0.500000000000000   0.166660000000000 1
ion-species GBRV/$ID_pbesol.uspp
ion-width 0
ionic-minimize  \
	dirUpdateScheme      L-BFGS \
	linminMethod         DirUpdateRecommended \
	nIterations          8 \
	history              15 \
	knormThreshold       0.0001 \
	energyDiffThreshold  1e-06 \
	nEnergyDiff          2 \
	alphaTstart          1 \
	alphaTmin            1e-10 \
	updateTestStepSize   yes \
	alphaTreduceFactor   0.1 \
	alphaTincreaseFactor 3 \
	nAlphaAdjustMax      3 \
	wolfeEnergy          0.0001 \
	wolfeGradient        0.9 \
	fdTest               no
kpoint   0.000000000000   0.000000000000   0.000000000000  1.00000000000000
kpoint-folding 4 4 1 
latt-move-scale 1 1 1
latt-scale 1 1 1 
lattice Triclinic 14.8268 10.4842 31.4527 90 90 90
lattice-minimize  \
	dirUpdateScheme      L-BFGS \
	linminMethod         DirUpdateRecommended \
	nIterations          0 \
	history              15 \
	knormThreshold       0 \
	energyDiffThreshold  1e-06 \
	nEnergyDiff          2 \
	alphaTstart          1 \
	alphaTmin            1e-10 \
	updateTestStepSize   yes \
	alphaTreduceFactor   0.1 \
	alphaTincreaseFactor 3 \
	nAlphaAdjustMax      3 \
	wolfeEnergy          0.0001 \
	wolfeGradient        0.9 \
	fdTest               no
lcao-params -1 1e-06 0.01
pcm-variant GLSSA13
spintype no-spin
subspace-rotation-factor 1 yes
symmetries automatic
symmetry-threshold 0.0001



---------- Setting up symmetries ----------

Found 8 point-group symmetries of the bravais lattice
Found 1 space-group symmetries with basis
Applied RMS atom displacement 0 bohrs to make symmetries exact.

---------- Initializing the Grid ----------
R = 
[    14.8268          0          0  ]
[          0    10.4842 4.39162e-06  ]
[          0          0    31.4527  ]
unit cell volume = 4889.24
G =
[   0.423772          0          0  ]
[          0   0.599299 -8.3678e-08  ]
[          0          0   0.199766  ]
Minimum fftbox size, Smin = [  68  48  144  ]
Chosen fftbox size, S = [  70  48  144  ]

---------- Initializing tighter grid for wavefunction operations ----------
R = 
[    14.8268          0          0  ]
[          0    10.4842 4.39162e-06  ]
[          0          0    31.4527  ]
unit cell volume = 4889.24
G =
[   0.423772          0          0  ]
[          0   0.599299 -8.3678e-08  ]
[          0          0   0.199766  ]
Minimum fftbox size, Smin = [  60  44  128  ]
Chosen fftbox size, S = [  60  48  128  ]

---------- Exchange Correlation functional ----------
Initalized PBEsol GGA exchange.
Initalized PBEsol GGA correlation.

---------- Setting up pseudopotentials ----------
Width of ionic core gaussian charges (only for fluid interactions / plotting) set to 0

Reading pseudopotential file '/home/jfm343/JDFTXDIR/build/pseudopotentials/GBRV/h_pbesol.uspp':
  Title: H.  Created by USPP 7.3.6 on 22-9-15
  Reference state energy: -0.449841.  1 valence electrons in orbitals:
    |100>  occupation: 1  eigenvalue: -0.232690
  lMax: 0  lLocal: 1  QijEcut: 6
  2 projectors sampled on a log grid with 395 points:
    l: 0  eig: -0.232690  rCut: 1.2
    l: 0  eig: 1.000000  rCut: 1.2
  Transforming local potential to a uniform radial grid of dG=0.02 with 1264 points.
  Transforming nonlocal projectors to a uniform radial grid of dG=0.02 with 432 points.
  Transforming density augmentations to a uniform radial grid of dG=0.02 with 1264 points.
  Transforming atomic orbitals to a uniform radial grid of dG=0.02 with 432 points.
  Core radius for overlap checks: 1.20 bohrs.

Reading pseudopotential file '/home/jfm343/JDFTXDIR/build/pseudopotentials/GBRV/c_pbesol.uspp':
  Title: C.  Created by USPP 7.3.6 on 3-2-2014
  Reference state energy: -5.383511.  4 valence electrons in orbitals:
    |200>  occupation: 2  eigenvalue: -0.501126
    |210>  occupation: 2  eigenvalue: -0.192448
  lMax: 1  lLocal: 2  QijEcut: 5
  4 projectors sampled on a log grid with 503 points:
    l: 0  eig: -0.501126  rCut: 1.3
    l: 0  eig: 0.000000  rCut: 1.3
    l: 1  eig: -0.192448  rCut: 1.3
    l: 1  eig: 0.000000  rCut: 1.3
  Partial core density with radius 1.1
  Transforming core density to a uniform radial grid of dG=0.02 with 1264 points.
  Transforming local potential to a uniform radial grid of dG=0.02 with 1264 points.
  Transforming nonlocal projectors to a uniform radial grid of dG=0.02 with 432 points.
  Transforming density augmentations to a uniform radial grid of dG=0.02 with 1264 points.
  Transforming atomic orbitals to a uniform radial grid of dG=0.02 with 432 points.
  Core radius for overlap checks: 1.30 bohrs.

Reading pseudopotential file '/home/jfm343/JDFTXDIR/build/pseudopotentials/GBRV/o_pbesol.uspp':
  Title: O.  Created by USPP 7.3.6 on 3-2-2014
  Reference state energy: -15.849885.  6 valence electrons in orbitals:
    |200>  occupation: 2  eigenvalue: -0.873214
    |210>  occupation: 4  eigenvalue: -0.330058
  lMax: 2  lLocal: 2  QijEcut: 6
  5 projectors sampled on a log grid with 511 points:
    l: 0  eig: -0.873214  rCut: 1.25
    l: 0  eig: 0.000000  rCut: 1.25
    l: 1  eig: -0.330058  rCut: 1.25
    l: 1  eig: 0.000000  rCut: 1.25
    l: 2  eig: 1.000000  rCut: 1.25
  Partial core density with radius 0.7
  Transforming core density to a uniform radial grid of dG=0.02 with 1264 points.
  Transforming local potential to a uniform radial grid of dG=0.02 with 1264 points.
  Transforming nonlocal projectors to a uniform radial grid of dG=0.02 with 432 points.
  Transforming density augmentations to a uniform radial grid of dG=0.02 with 1264 points.
  Transforming atomic orbitals to a uniform radial grid of dG=0.02 with 432 points.
  Core radius for overlap checks: 1.25 bohrs.

Reading pseudopotential file '/home/jfm343/JDFTXDIR/build/pseudopotentials/GBRV/pt_pbesol.uspp':
  Title: Pt.  Created by USPP 7.3.6 on 22-9-15
  Reference state energy: -104.899005.  16 valence electrons in orbitals:
    |510>  occupation: 6  eigenvalue: -2.158847
    |520>  occupation: 9.5  eigenvalue: -0.336311
    |600>  occupation: 0  eigenvalue: -0.320324
    |610>  occupation: 0  eigenvalue: -0.119800
  lMax: 2  lLocal: 3  QijEcut: 5.5
  6 projectors sampled on a log grid with 745 points:
    l: 0  eig: -0.320324  rCut: 2.45
    l: 0  eig: 1.500000  rCut: 2.45
    l: 1  eig: -2.158847  rCut: 1.6
    l: 1  eig: -0.119800  rCut: 1.6
    l: 2  eig: -0.500000  rCut: 1.6
    l: 2  eig: -0.336311  rCut: 1.6
  Partial core density with radius 1.1
  Transforming core density to a uniform radial grid of dG=0.02 with 1264 points.
  Transforming local potential to a uniform radial grid of dG=0.02 with 1264 points.
  Transforming nonlocal projectors to a uniform radial grid of dG=0.02 with 432 points.
  Transforming density augmentations to a uniform radial grid of dG=0.02 with 1264 points.
  Transforming atomic orbitals to a uniform radial grid of dG=0.02 with 432 points.
  Core radius for overlap checks: 2.45 bohrs.

Initialized 4 species with 25 total atoms.

Folded 1 k-points by 4x4x1 to 16 k-points.

---------- Setting up k-points, bands, fillings ----------
Adding inversion symmetry to k-mesh for non-inversion-symmetric unit cell.
Reduced to 10 k-points under symmetry. 
Computing the number of bands and number of electrons
Calculating initial fillings.
nElectrons: 338.000000   nBands: 254   nStates: 10

----- Setting up reduced wavefunction bases (one per k-point) -----
average nbasis = 20892.312 , ideal nbasis = 20887.217

---------- Setting up ewald sum ----------
Optimum gaussian width for ewald sums = 3.959745 bohr.
Real space sum over 693 unit cells with max indices [  4  5  3  ]
Reciprocal space sum over 4455 terms with max indices [  7  5  13  ]

---------- Allocating electronic variables ----------
Initializing wave functions:  linear combination of atomic orbitals
H pseudo-atom occupations:   s ( 1 )
C pseudo-atom occupations:   s ( 2 )  p ( 2 )
O pseudo-atom occupations:   s ( 2 )  p ( 4 )
Pt pseudo-atom occupations:   s ( 0 )  p ( 6 0 )  d ( 10 )
	FillingsUpdate:  mu: -0.397026102  nElectrons: 338.000000
LCAOMinimize: Iter:   0  F: -1806.3364972662852779  |grad|_K:  2.266e-02  alpha:  1.000e+00
LCAOMinimize: 	Step increased F by 6.021116e+01, reducing alpha to 2.136095e-02.
	FillingsUpdate:  mu: -0.249071231  nElectrons: 338.000000
LCAOMinimize: Iter:   1  F: -1812.1602700610985721  |grad|_K:  1.415e-02  alpha:  2.136e-02  linmin: -2.802e-01  cgtest:  9.400e-01  t[s]:    452.25
LCAOMinimize: Encountered beta<0, resetting CG.
LCAOMinimize: 	Predicted alpha/alphaT>3.000000, increasing alphaT to 6.408285e-02.
	FillingsUpdate:  mu: +0.342613082  nElectrons: 338.000000
LCAOMinimize: Iter:   2  F: -1816.5502261360009015  |grad|_K:  7.843e-03  alpha:  7.105e-02  linmin:  1.355e-01  cgtest: -5.786e-01  t[s]:    592.51
	FillingsUpdate:  mu: +0.474754071  nElectrons: 338.000000
LCAOMinimize: Iter:   3  F: -1817.4282547853695178  |grad|_K:  7.376e-03  alpha:  9.107e-02  linmin: -2.339e-02  cgtest:  8.981e-01  t[s]:    702.21
	FillingsUpdate:  mu: +0.280567745  nElectrons: 338.000000
LCAOMinimize: Iter:   4  F: -1818.2750982886366273  |grad|_K:  4.117e-03  alpha:  5.066e-02  linmin:  1.364e-02  cgtest: -1.360e-01  t[s]:    810.63
	FillingsUpdate:  mu: +0.194083171  nElectrons: 338.000000
LCAOMinimize: Iter:   5  F: -1818.3865469979507452  |grad|_K:  1.591e-03  alpha:  2.308e-02  linmin:  4.178e-02  cgtest:  7.175e-02  t[s]:    919.85
LCAOMinimize: 	Predicted alpha/alphaT>3.000000, increasing alphaT to 6.922989e-02.
	FillingsUpdate:  mu: +0.269597959  nElectrons: 338.000000
LCAOMinimize: Iter:   6  F: -1818.5306297418198938  |grad|_K:  2.367e-03  alpha:  1.796e-01  linmin: -4.653e-03  cgtest:  6.314e-02  t[s]:   1057.82
	FillingsUpdate:  mu: +0.266376113  nElectrons: 338.000000
LCAOMinimize: Iter:   7  F: -1818.5898958731195307  |grad|_K:  1.691e-03  alpha:  3.275e-02  linmin:  7.412e-03  cgtest: -1.317e-01  t[s]:   1166.87
	FillingsUpdate:  mu: +0.236851987  nElectrons: 338.000000
LCAOMinimize: Iter:   8  F: -1818.6668961600087187  |grad|_K:  8.593e-04  alpha:  8.609e-02  linmin: -3.723e-03  cgtest:  3.085e-01  t[s]:   1273.48
	FillingsUpdate:  mu: +0.239748608  nElectrons: 338.000000
LCAOMinimize: Iter:   9  F: -1818.6755945243894530  |grad|_K:  6.934e-04  alpha:  3.599e-02  linmin: -4.854e-05  cgtest: -4.094e-03  t[s]:   1382.64
	FillingsUpdate:  mu: +0.243105951  nElectrons: 338.000000
LCAOMinimize: Iter:  10  F: -1818.6843331709337690  |grad|_K:  3.178e-04  alpha:  5.642e-02  linmin:  1.146e-02  cgtest: -7.482e-02  t[s]:   1490.76
	FillingsUpdate:  mu: +0.237750065  nElectrons: 338.000000
LCAOMinimize: Iter:  11  F: -1818.6876278277798065  |grad|_K:  1.945e-04  alpha:  1.036e-01  linmin:  3.888e-03  cgtest:  3.270e-02  t[s]:   1599.30
	FillingsUpdate:  mu: +0.235804911  nElectrons: 338.000000
LCAOMinimize: Iter:  12  F: -1818.6883951297859312  |grad|_K:  2.509e-04  alpha:  6.304e-02  linmin: -8.840e-06  cgtest:  4.893e-03  t[s]:   1706.64
	FillingsUpdate:  mu: +0.231915365  nElectrons: 338.000000
LCAOMinimize: Iter:  13  F: -1818.6896541595408507  |grad|_K:  1.142e-04  alpha:  6.148e-02  linmin:  5.763e-04  cgtest: -3.899e-02  t[s]:   1815.11
	FillingsUpdate:  mu: +0.233106899  nElectrons: 338.000000
LCAOMinimize: Iter:  14  F: -1818.6899601018174053  |grad|_K:  3.905e-05  alpha:  7.238e-02  linmin: -1.496e-04  cgtest:  6.520e-03  t[s]:   1925.71
	FillingsUpdate:  mu: +0.233401581  nElectrons: 338.000000
LCAOMinimize: Iter:  15  F: -1818.6900148874608476  |grad|_K:  6.972e-05  alpha:  1.105e-01  linmin: -2.095e-05  cgtest: -1.100e-04  t[s]:   2036.22
	FillingsUpdate:  mu: +0.233825337  nElectrons: 338.000000
LCAOMinimize: Iter:  16  F: -1818.6900934062414308  |grad|_K:  2.464e-05  alpha:  4.981e-02  linmin:  5.747e-04  cgtest: -2.643e-03  t[s]:   2145.79
	FillingsUpdate:  mu: +0.234612871  nElectrons: 338.000000
LCAOMinimize: Iter:  17  F: -1818.6901184118926267  |grad|_K:  1.563e-05  alpha:  1.268e-01  linmin:  2.323e-06  cgtest:  4.458e-03  t[s]:   2258.13
	FillingsUpdate:  mu: +0.234498450  nElectrons: 338.000000
LCAOMinimize: Iter:  18  F: -1818.6901229566101392  |grad|_K:  1.399e-05  alpha:  5.725e-02  linmin:  4.762e-05  cgtest: -8.971e-04  t[s]:   2365.40
	FillingsUpdate:  mu: +0.234379085  nElectrons: 338.000000
LCAOMinimize: Iter:  19  F: -1818.6901250509122292  |grad|_K:  6.544e-06  alpha:  3.294e-02  linmin:  4.347e-06  cgtest:  1.387e-03  t[s]:   2474.86
LCAOMinimize: 	Predicted alpha/alphaT>3.000000, increasing alphaT to 9.881379e-02.
	FillingsUpdate:  mu: +0.234192545  nElectrons: 338.000000
LCAOMinimize: Iter:  20  F: -1818.6901283300671821  |grad|_K:  7.003e-06  alpha:  2.356e-01  linmin:  7.260e-05  cgtest: -6.964e-04  t[s]:   2614.10
	FillingsUpdate:  mu: +0.234208698  nElectrons: 338.000000
LCAOMinimize: Iter:  21  F: -1818.6901295334644146  |grad|_K:  5.448e-06  alpha:  7.550e-02  linmin: -3.190e-05  cgtest:  2.691e-03  t[s]:   2723.11
	FillingsUpdate:  mu: +0.234210704  nElectrons: 338.000000
LCAOMinimize: Iter:  22  F: -1818.6901298030229555  |grad|_K:  2.852e-06  alpha:  2.789e-02  linmin: -2.277e-05  cgtest: -4.587e-04  t[s]:   2833.85
LCAOMinimize: 	Predicted alpha/alphaT>3.000000, increasing alphaT to 8.368421e-02.
	FillingsUpdate:  mu: +0.234176975  nElectrons: 338.000000
LCAOMinimize: Iter:  23  F: -1818.6901301546233753  |grad|_K:  1.682e-06  alpha:  1.328e-01  linmin: -1.720e-04  cgtest:  1.578e-03  t[s]:   2972.81
LCAOMinimize: Converged (|Delta F|<1.000000e-06 for 2 iters).


---- Citations for features of the code used in this run ----

   Software package:
      R. Sundararaman, K. Letchworth-Weaver, K.A. Schwarz, D. Gunceler, Y. Ozhabes and T.A. Arias, 'JDFTx: software for joint density-functional theory', SoftwareX 6, 278 (2017)

   gga-PBEsol exchange-correlation functional:
      J.P. Perdew et al., Phys. Rev. Lett. 100, 136406 (2008)

   Pseudopotentials:
      KF Garrity, JW Bennett, KM Rabe and D Vanderbilt, Comput. Mater. Sci. 81, 446 (2014)

   Total energy minimization with Auxiliary Hamiltonian:
      C. Freysoldt, S. Boeck, and J. Neugebauer, Phys. Rev. B 79, 241103(R) (2009)

This list may not be complete. Please suggest additional citations or
report any other bugs at https://github.com/shankar1729/jdftx/issues

Initialization completed successfully at t[s]:   3066.96


-------- Electronic minimization -----------
	FillingsUpdate:  mu: +0.234176975  nElectrons: 338.000000
ElecMinimize: Iter:   0  F: -1818.690130154625422  |grad|_K:  1.418e-04  alpha:  1.000e+00
	FillingsUpdate:  mu: +0.260050609  nElectrons: 338.000000
	SubspaceRotationAdjust: set factor to 1
ElecMinimize: Iter:   1  F: -1819.155653942485515  |grad|_K:  6.980e-05  alpha:  4.397e-01  linmin:  1.277e-04  t[s]:   3724.42
	FillingsUpdate:  mu: +0.232432972  nElectrons: 338.000000
	SubspaceRotationAdjust: set factor to 0.588
ElecMinimize: Iter:   2  F: -1819.230876789064041  |grad|_K:  9.152e-05  alpha:  2.920e-01  linmin: -4.828e-06  t[s]:   4177.05
	FillingsUpdate:  mu: +0.238104423  nElectrons: 338.000000
	SubspaceRotationAdjust: set factor to 0.395
ElecMinimize: Iter:   3  F: -1819.254544527402459  |grad|_K:  5.892e-05  alpha:  4.757e-02  linmin: -4.888e-04  t[s]:   4631.08
	FillingsUpdate:  mu: +0.244882381  nElectrons: 338.000000
	SubspaceRotationAdjust: set factor to 0.207
ElecMinimize: Iter:   4  F: -1819.268468375401199  |grad|_K:  2.982e-05  alpha:  6.866e-02  linmin:  7.011e-05  t[s]:   5088.58
ElecMinimize: 	Predicted alpha/alphaT>3.000000, increasing alphaT to 2.059735e-01.
	FillingsUpdate:  mu: +0.253587785  nElectrons: 338.000000
	SubspaceRotationAdjust: set factor to 0.201
ElecMinimize: Iter:   5  F: -1819.283397059051140  |grad|_K:  2.056e-05  alpha:  3.204e-01  linmin:  2.234e-05  t[s]:   5650.27
	FillingsUpdate:  mu: +0.244074712  nElectrons: 338.000000
	SubspaceRotationAdjust: set factor to 0.191
ElecMinimize: Iter:   6  F: -1819.289656801801812  |grad|_K:  1.275e-05  alpha:  2.784e-01  linmin:  7.244e-06  t[s]:   6105.83
	FillingsUpdate:  mu: +0.242362293  nElectrons: 338.000000
	SubspaceRotationAdjust: set factor to 0.2
ElecMinimize: Iter:   7  F: -1819.292346873276983  |grad|_K:  1.003e-05  alpha:  3.107e-01  linmin:  8.721e-06  t[s]:   6560.74
	FillingsUpdate:  mu: +0.244562918  nElectrons: 338.000000
	SubspaceRotationAdjust: set factor to 0.173
ElecMinimize: Iter:   8  F: -1819.293542084206820  |grad|_K:  8.135e-06  alpha:  2.225e-01  linmin:  1.088e-06  t[s]:   7013.29
	FillingsUpdate:  mu: +0.246883544  nElectrons: 338.000000
	SubspaceRotationAdjust: set factor to 0.16
ElecMinimize: Iter:   9  F: -1819.294382844384245  |grad|_K:  5.909e-06  alpha:  2.381e-01  linmin:  6.988e-06  t[s]:   7463.96
	FillingsUpdate:  mu: +0.246030883  nElectrons: 338.000000
	SubspaceRotationAdjust: set factor to 0.201
ElecMinimize: Iter:  10  F: -1819.295044760596056  |grad|_K:  4.921e-06  alpha:  3.558e-01  linmin:  5.882e-06  t[s]:   7913.78
	FillingsUpdate:  mu: +0.244437511  nElectrons: 338.000000
	SubspaceRotationAdjust: set factor to 0.215
ElecMinimize: Iter:  11  F: -1819.295548635322803  |grad|_K:  4.634e-06  alpha:  3.906e-01  linmin:  4.832e-06  t[s]:   8367.92
	FillingsUpdate:  mu: +0.245164065  nElectrons: 338.000000
	SubspaceRotationAdjust: set factor to 0.204
ElecMinimize: Iter:  12  F: -1819.295874616262608  |grad|_K:  4.723e-06  alpha:  2.847e-01  linmin:  6.222e-07  t[s]:   8814.84
	FillingsUpdate:  mu: +0.246319369  nElectrons: 338.000000
	SubspaceRotationAdjust: set factor to 0.16
ElecMinimize: Iter:  13  F: -1819.296128239526297  |grad|_K:  3.783e-06  alpha:  2.129e-01  linmin:  3.902e-07  t[s]:   9269.47
	FillingsUpdate:  mu: +0.246623745  nElectrons: 338.000000
	SubspaceRotationAdjust: set factor to 0.182
ElecMinimize: Iter:  14  F: -1819.296353634988918  |grad|_K:  2.688e-06  alpha:  2.955e-01  linmin:  4.175e-06  t[s]:   9721.05
	FillingsUpdate:  mu: +0.245912827  nElectrons: 338.000000
	SubspaceRotationAdjust: set factor to 0.174
ElecMinimize: Iter:  15  F: -1819.296482563077461  |grad|_K:  2.146e-06  alpha:  3.353e-01  linmin:  2.000e-06  t[s]:  10173.32
	FillingsUpdate:  mu: +0.245907160  nElectrons: 338.000000
	SubspaceRotationAdjust: set factor to 0.152
ElecMinimize: Iter:  16  F: -1819.296541326271154  |grad|_K:  1.667e-06  alpha:  2.394e-01  linmin: -6.421e-07  t[s]:  10625.98
	FillingsUpdate:  mu: +0.246235629  nElectrons: 338.000000
	SubspaceRotationAdjust: set factor to 0.129
	SubspaceRotationAdjust: resetting CG because factor has changed by 0.128642
ElecMinimize: 	State modified externally: resetting search direction.
ElecMinimize: Iter:  17  F: -1819.296573743876934  |grad|_K:  1.112e-06  alpha:  2.185e-01
	FillingsUpdate:  mu: +0.246266297  nElectrons: 338.000000
	SubspaceRotationAdjust: set factor to 0.195
ElecMinimize: Iter:  18  F: -1819.296594298274385  |grad|_K:  6.945e-07  alpha:  3.115e-01  linmin:  1.631e-07  t[s]:  11704.57
	FillingsUpdate:  mu: +0.246265003  nElectrons: 338.000000
	SubspaceRotationAdjust: set factor to 0.151
ElecMinimize: Iter:  19  F: -1819.296604344156776  |grad|_K:  7.727e-07  alpha:  3.902e-01  linmin:  6.824e-07  t[s]:  12156.65
	FillingsUpdate:  mu: +0.246230546  nElectrons: 338.000000
	SubspaceRotationAdjust: set factor to 0.0926
ElecMinimize: Iter:  20  F: -1819.296611569943025  |grad|_K:  4.514e-07  alpha:  2.267e-01  linmin: -4.103e-07  t[s]:  12608.15
	FillingsUpdate:  mu: +0.246177742  nElectrons: 338.000000
	SubspaceRotationAdjust: set factor to 0.0725
ElecMinimize: Iter:  21  F: -1819.296616561493693  |grad|_K:  3.070e-07  alpha:  4.592e-01  linmin:  1.902e-06  t[s]:  13063.25
	FillingsUpdate:  mu: +0.246187200  nElectrons: 338.000000
	SubspaceRotationAdjust: set factor to 0.065
ElecMinimize: Iter:  22  F: -1819.296618631632782  |grad|_K:  2.361e-07  alpha:  4.124e-01  linmin:  2.618e-07  t[s]:  13515.28
	FillingsUpdate:  mu: +0.246190543  nElectrons: 338.000000
	SubspaceRotationAdjust: set factor to 0.0746
ElecMinimize: Iter:  23  F: -1819.296620512653135  |grad|_K:  1.933e-07  alpha:  6.325e-01  linmin:  6.506e-07  t[s]:  13968.29
	FillingsUpdate:  mu: +0.246132970  nElectrons: 338.000000
	SubspaceRotationAdjust: set factor to 0.0834
ElecMinimize: Iter:  24  F: -1819.296621969400121  |grad|_K:  1.805e-07  alpha:  7.319e-01  linmin: -4.382e-08  t[s]:  14421.23
	FillingsUpdate:  mu: +0.246121137  nElectrons: 338.000000
	SubspaceRotationAdjust: set factor to 0.0833
ElecMinimize: Iter:  25  F: -1819.296623066447637  |grad|_K:  1.771e-07  alpha:  6.308e-01  linmin: -2.814e-07  t[s]:  14875.29
	FillingsUpdate:  mu: +0.246126964  nElectrons: 338.000000
	SubspaceRotationAdjust: set factor to 0.0748
ElecMinimize: Iter:  26  F: -1819.296623999995518  |grad|_K:  1.370e-07  alpha:  5.569e-01  linmin: -2.528e-07  t[s]:  15330.98
	FillingsUpdate:  mu: +0.246105698  nElectrons: 338.000000
	SubspaceRotationAdjust: set factor to 0.0721
ElecMinimize: Iter:  27  F: -1819.296624465350760  |grad|_K:  1.063e-07  alpha:  4.640e-01  linmin: -2.363e-08  t[s]:  15788.33
	FillingsUpdate:  mu: +0.246086703  nElectrons: 338.000000
	SubspaceRotationAdjust: set factor to 0.0753
ElecMinimize: Iter:  28  F: -1819.296624777775378  |grad|_K:  7.331e-08  alpha:  5.174e-01  linmin:  1.297e-08  t[s]:  16242.29
	FillingsUpdate:  mu: +0.246095240  nElectrons: 338.000000
	SubspaceRotationAdjust: set factor to 0.0863
ElecMinimize: Iter:  29  F: -1819.296624923423451  |grad|_K:  4.894e-08  alpha:  5.074e-01  linmin: -7.289e-08  t[s]:  16692.12
	FillingsUpdate:  mu: +0.246103162  nElectrons: 338.000000
	SubspaceRotationAdjust: set factor to 0.0941
ElecMinimize: Iter:  30  F: -1819.296624993534806  |grad|_K:  4.024e-08  alpha:  5.482e-01  linmin: -1.802e-08  t[s]:  17147.20
	FillingsUpdate:  mu: +0.246102860  nElectrons: 338.000000
	SubspaceRotationAdjust: set factor to 0.0932
ElecMinimize: Iter:  31  F: -1819.296625033306327  |grad|_K:  3.414e-08  alpha:  4.610e-01  linmin: -1.459e-07  t[s]:  17603.71
	FillingsUpdate:  mu: +0.246103323  nElectrons: 338.000000
	SubspaceRotationAdjust: set factor to 0.0883
ElecMinimize: Iter:  32  F: -1819.296625068419416  |grad|_K:  3.225e-08  alpha:  5.655e-01  linmin:  3.902e-07  t[s]:  18056.02
	FillingsUpdate:  mu: +0.246109846  nElectrons: 338.000000
	SubspaceRotationAdjust: set factor to 0.0887
ElecMinimize: Iter:  33  F: -1819.296625099207404  |grad|_K:  2.567e-08  alpha:  5.592e-01  linmin:  5.391e-08  t[s]:  18508.18
	FillingsUpdate:  mu: +0.246114016  nElectrons: 338.000000
	SubspaceRotationAdjust: set factor to 0.0957
ElecMinimize: Iter:  34  F: -1819.296625119181954  |grad|_K:  2.047e-08  alpha:  5.651e-01  linmin: -4.923e-08  t[s]:  18965.54
	FillingsUpdate:  mu: +0.246115548  nElectrons: 338.000000
	SubspaceRotationAdjust: set factor to 0.103
ElecMinimize: Iter:  35  F: -1819.296625132416693  |grad|_K:  1.629e-08  alpha:  5.870e-01  linmin: -3.309e-07  t[s]:  19419.59
	FillingsUpdate:  mu: +0.246118326  nElectrons: 338.000000
	SubspaceRotationAdjust: set factor to 0.11
ElecMinimize: Iter:  36  F: -1819.296625139664229  |grad|_K:  1.139e-08  alpha:  5.009e-01  linmin: -1.704e-07  t[s]:  19877.63
	FillingsUpdate:  mu: +0.246118816  nElectrons: 338.000000
	SubspaceRotationAdjust: set factor to 0.113
ElecMinimize: Iter:  37  F: -1819.296625142838820  |grad|_K:  7.854e-09  alpha:  4.466e-01  linmin: -7.598e-07  t[s]:  20327.33
ElecMinimize: Converged (|Delta F|<1.000000e-08 for 2 iters).
Setting wave functions to eigenvectors of Hamiltonian

# Ionic positions in lattice coordinates:
ion H   0.625750000000000   0.718020000000000   0.333030000000000 1
ion H   0.312900000000000   0.460100000000000   0.333030000000000 1
ion C   0.547480000000000   0.554610000000000   0.333030000000000 1
ion O   0.588530000000000   0.344120000000000   0.333030000000000 1
ion O   0.379680000000000   0.603660000000000   0.333040000000000 1
ion Pt   0.000000000000000   0.000000000000000  -0.166660000000000 0
ion Pt   0.000000000000000   0.500000000000000  -0.166660000000000 0
ion Pt   0.500000000000000   0.000000000000000  -0.166660000000000 0
ion Pt   0.500000000000000   0.500000000000000  -0.166660000000000 0
ion Pt   0.250000000000000   0.250000000000000  -0.083330000000000 0
ion Pt   0.250000000000000   0.750000000000000  -0.083330000000000 0
ion Pt   0.750000000000000   0.250000000000000  -0.083330000000000 0
ion Pt   0.750000000000000   0.750000000000000  -0.083330000000000 0
ion Pt   0.000000000000000   0.000000000000000   0.000000000000000 1
ion Pt   0.000000000000000   0.500000000000000   0.000000000000000 1
ion Pt   0.500000000000000   0.000000000000000   0.000000000000000 1
ion Pt   0.500000000000000   0.500000000000000   0.000000000000000 1
ion Pt   0.250000000000000   0.250000000000000   0.083330000000000 1
ion Pt   0.250000000000000   0.750000000000000   0.083330000000000 1
ion Pt   0.750000000000000   0.250000000000000   0.083330000000000 1
ion Pt   0.750000000000000   0.750000000000000   0.083330000000000 1
ion Pt   0.000000000000000   0.000000000000000   0.166660000000000 1
ion Pt   0.000000000000000   0.500000000000000   0.166660000000000 1
ion Pt   0.500000000000000   0.000000000000000   0.166660000000000 1
ion Pt   0.500000000000000   0.500000000000000   0.166660000000000 1


# Forces in Lattice coordinates:
force H   0.102325340546332   0.075360093117029   0.050117207069243 1
force H  -0.208827737167179  -0.384274255887138  -0.023017177199722 1
force C  -0.511673044069384  -0.284802469129716  -0.202147660748157 1
force O   0.446713594679294  -0.099973533605310   0.082328107947633 1
force O   0.158189921365225   0.687137762126856   0.132295894179292 1
force Pt  -0.000057972501836  -0.000044327391593   0.622251060371788 0
force Pt   0.000121173393110   0.000016942009633   0.619099320673055 0
force Pt  -0.000058500195758  -0.000332015229625   0.625983214750327 0
force Pt  -0.000040056897016   0.000197371625497   0.638839975616463 0
force Pt  -0.001584166441288  -0.000145132611595  -0.650000199215089 0
force Pt  -0.001963981583630   0.000045348291762  -0.650025772627598 0
force Pt   0.001838035132654  -0.000089425041837  -0.652527690209159 0
force Pt   0.001958688427566   0.000049681515667  -0.649342397352811 0
force Pt  -0.000858819339048  -0.000303855271512  -0.004037207506989 1
force Pt  -0.000733453711606   0.000214043693933  -0.001182836433131 1
force Pt  -0.000509393844182  -0.000153945077478   0.012721517062141 1
force Pt   0.000535110632858   0.000044639436356   0.041007323394552 1
force Pt  -0.015089095326648  -0.003889679598140   0.632532646611657 1
force Pt  -0.005311293291568   0.001792411490525   0.639199377200487 1
force Pt   0.007081566270293  -0.002843085177260   0.632372004161231 1
force Pt   0.012632794504667   0.003827691610371   0.635695783199354 1
force Pt   0.000366765283095   0.000054440545683  -0.615989601378431 1
force Pt   0.000952922468665  -0.000425339677060  -0.621290457483196 1
force Pt  -0.000184604311366   0.004575043564108  -0.664882218092530 1
force Pt   0.013880896943809   0.003015204025975  -0.624883155924395 1

# Energy components:
   Eewald =     1970.1364926566548093
       EH =     3657.6515362186892162
     Eloc =    -7769.1275979008933064
      Enl =      -15.8533814863050218
      Exc =     -575.4258855203651137
 Exc_core =      324.9916765715024098
       KE =      588.5875243277574782
-------------------------------------
     Etot =    -1819.0396351329595745
       TS =        0.2569900098793505
-------------------------------------
        F =    -1819.2966251428388205

IonicMinimize: Iter:   0  F: -1819.296625142838820  |grad|_K:  1.553e-02  t[s]:  20400.74

#--- Lowdin population analysis ---
# oxidation-state H +0.228 +0.437
# oxidation-state C +0.425
# oxidation-state O -0.317 -0.399
# oxidation-state Pt +0.069 +0.069 +0.069 +0.069 -0.049 -0.049 -0.049 -0.049 +0.008 +0.008 +0.008 +0.008 -0.051 -0.045 -0.044 -0.048 +0.056 +0.040 +0.047 -0.008


-------- Electronic minimization -----------
	FillingsUpdate:  mu: +0.242140385  nElectrons: 338.000000
ElecMinimize: Iter:   0  F: -1819.130940572263171  |grad|_K:  9.277e-05  alpha:  1.000e+00
	FillingsUpdate:  mu: +0.254217590  nElectrons: 338.000000
	SubspaceRotationAdjust: set factor to 0.0882
ElecMinimize: Iter:   1  F: -1819.278005405886688  |grad|_K:  3.595e-05  alpha:  3.206e-01  linmin:  7.042e-04  t[s]:  21196.53
	FillingsUpdate:  mu: +0.246542163  nElectrons: 338.000000
	SubspaceRotationAdjust: set factor to 0.0472
ElecMinimize: Iter:   2  F: -1819.292107159377565  |grad|_K:  1.526e-05  alpha:  2.047e-01  linmin: -1.182e-06  t[s]:  21648.84
	FillingsUpdate:  mu: +0.246059660  nElectrons: 338.000000
	SubspaceRotationAdjust: set factor to 0.0726
ElecMinimize: Iter:   3  F: -1819.296331494897231  |grad|_K:  6.775e-06  alpha:  3.399e-01  linmin: -3.229e-05  t[s]:  22099.76
	FillingsUpdate:  mu: +0.246254343  nElectrons: 338.000000
	SubspaceRotationAdjust: set factor to 0.0722
ElecMinimize: Iter:   4  F: -1819.297432329023650  |grad|_K:  5.150e-06  alpha:  4.490e-01  linmin: -2.386e-05  t[s]:  22558.61
	FillingsUpdate:  mu: +0.246448938  nElectrons: 338.000000
	SubspaceRotationAdjust: set factor to 0.0812
ElecMinimize: Iter:   5  F: -1819.298450992299877  |grad|_K:  5.914e-06  alpha:  7.203e-01  linmin:  5.665e-05  t[s]:  23013.23
	FillingsUpdate:  mu: +0.246530319  nElectrons: 338.000000
	SubspaceRotationAdjust: set factor to 0.0911
ElecMinimize: Iter:   6  F: -1819.299674187021310  |grad|_K:  6.338e-06  alpha:  6.580e-01  linmin: -2.679e-05  t[s]:  23468.11
	FillingsUpdate:  mu: +0.246625812  nElectrons: 338.000000
	SubspaceRotationAdjust: set factor to 0.0992
ElecMinimize: Iter:   7  F: -1819.301514288289127  |grad|_K:  7.072e-06  alpha:  8.553e-01  linmin:  3.661e-06  t[s]:  23923.35
	FillingsUpdate:  mu: +0.246783919  nElectrons: 338.000000
	SubspaceRotationAdjust: set factor to 0.0954
ElecMinimize: Iter:   8  F: -1819.303095175199360  |grad|_K:  6.307e-06  alpha:  5.862e-01  linmin:  4.647e-06  t[s]:  24378.43
	FillingsUpdate:  mu: +0.246537878  nElectrons: 338.000000
	SubspaceRotationAdjust: set factor to 0.0675
ElecMinimize: Iter:   9  F: -1819.303814836758193  |grad|_K:  4.220e-06  alpha:  3.426e-01  linmin:  2.507e-05  t[s]:  24831.95
	FillingsUpdate:  mu: +0.246389719  nElectrons: 338.000000
	SubspaceRotationAdjust: set factor to 0.0645
ElecMinimize: Iter:  10  F: -1819.304168383543356  |grad|_K:  2.383e-06  alpha:  3.730e-01  linmin:  2.154e-05  t[s]:  25282.30
	FillingsUpdate:  mu: +0.246366500  nElectrons: 338.000000
	SubspaceRotationAdjust: set factor to 0.0718
ElecMinimize: Iter:  11  F: -1819.304301466437892  |grad|_K:  1.344e-06  alpha:  4.398e-01  linmin:  2.483e-06  t[s]:  25736.78
	FillingsUpdate:  mu: +0.246355199  nElectrons: 338.000000
	SubspaceRotationAdjust: set factor to 0.0703
ElecMinimize: Iter:  12  F: -1819.304340342615887  |grad|_K:  8.477e-07  alpha:  4.032e-01  linmin: -1.656e-06  t[s]:  26192.00
	FillingsUpdate:  mu: +0.246349999  nElectrons: 338.000000
	SubspaceRotationAdjust: set factor to 0.0853
ElecMinimize: Iter:  13  F: -1819.304357126714649  |grad|_K:  6.097e-07  alpha:  4.375e-01  linmin:  1.062e-06  t[s]:  26643.98
	FillingsUpdate:  mu: +0.246346109  nElectrons: 338.000000
	SubspaceRotationAdjust: set factor to 0.116
ElecMinimize: Iter:  14  F: -1819.304368523681205  |grad|_K:  5.252e-07  alpha:  5.744e-01  linmin:  6.740e-07  t[s]:  27097.64
	FillingsUpdate:  mu: +0.246308789  nElectrons: 338.000000
	SubspaceRotationAdjust: set factor to 0.135
ElecMinimize: Iter:  15  F: -1819.304378838338152  |grad|_K:  6.176e-07  alpha:  7.006e-01  linmin:  4.535e-07  t[s]:  27549.54
	FillingsUpdate:  mu: +0.246266384  nElectrons: 338.000000
	SubspaceRotationAdjust: set factor to 0.123
ElecMinimize: Iter:  16  F: -1819.304387642936945  |grad|_K:  6.593e-07  alpha:  4.323e-01  linmin: -2.551e-08  t[s]:  28003.44
	FillingsUpdate:  mu: +0.246228588  nElectrons: 338.000000
	SubspaceRotationAdjust: set factor to 0.105
ElecMinimize: Iter:  17  F: -1819.304396695458991  |grad|_K:  5.250e-07  alpha:  3.900e-01  linmin:  2.155e-07  t[s]:  28455.19
	FillingsUpdate:  mu: +0.246210408  nElectrons: 338.000000
	SubspaceRotationAdjust: set factor to 0.109
ElecMinimize: Iter:  18  F: -1819.304403805121865  |grad|_K:  3.808e-07  alpha:  4.833e-01  linmin:  5.810e-07  t[s]:  28904.75
	FillingsUpdate:  mu: +0.246196113  nElectrons: 338.000000
	SubspaceRotationAdjust: set factor to 0.126
ElecMinimize: Iter:  19  F: -1819.304407489374853  |grad|_K:  2.662e-07  alpha:  4.761e-01  linmin:  4.917e-08  t[s]:  29358.64
	FillingsUpdate:  mu: +0.246184149  nElectrons: 338.000000
	SubspaceRotationAdjust: set factor to 0.161
ElecMinimize: Iter:  20  F: -1819.304409389564398  |grad|_K:  1.920e-07  alpha:  5.022e-01  linmin: -6.536e-08  t[s]:  29807.59
	FillingsUpdate:  mu: +0.246181197  nElectrons: 338.000000
	SubspaceRotationAdjust: set factor to 0.182
ElecMinimize: Iter:  21  F: -1819.304410350951684  |grad|_K:  1.618e-07  alpha:  4.887e-01  linmin:  1.470e-07  t[s]:  30256.08
	FillingsUpdate:  mu: +0.246186384  nElectrons: 338.000000
	SubspaceRotationAdjust: set factor to 0.142
ElecMinimize: Iter:  22  F: -1819.304410896801301  |grad|_K:  1.791e-07  alpha:  3.907e-01  linmin:  1.776e-07  t[s]:  30709.50
	FillingsUpdate:  mu: +0.246193298  nElectrons: 338.000000
	SubspaceRotationAdjust: set factor to 0.124
ElecMinimize: Iter:  23  F: -1819.304411290124563  |grad|_K:  1.305e-07  alpha:  2.297e-01  linmin: -5.682e-08  t[s]:  31167.67
	FillingsUpdate:  mu: +0.246203342  nElectrons: 338.000000
	SubspaceRotationAdjust: set factor to 0.16
ElecMinimize: Iter:  24  F: -1819.304411708765429  |grad|_K:  9.829e-08  alpha:  4.600e-01  linmin: -4.459e-07  t[s]:  31614.89
	FillingsUpdate:  mu: +0.246211597  nElectrons: 338.000000
	SubspaceRotationAdjust: set factor to 0.17
ElecMinimize: Iter:  25  F: -1819.304411959020172  |grad|_K:  9.654e-08  alpha:  4.850e-01  linmin:  1.380e-07  t[s]:  32071.20
	FillingsUpdate:  mu: +0.246217428  nElectrons: 338.000000
	SubspaceRotationAdjust: set factor to 0.137
ElecMinimize: Iter:  26  F: -1819.304412090288679  |grad|_K:  8.877e-08  alpha:  2.638e-01  linmin: -5.702e-08  t[s]:  32523.46
	FillingsUpdate:  mu: +0.246223410  nElectrons: 338.000000
	SubspaceRotationAdjust: set factor to 0.139
ElecMinimize: Iter:  27  F: -1819.304412215320554  |grad|_K:  5.452e-08  alpha:  2.970e-01  linmin: -3.260e-07  t[s]:  32977.85
	FillingsUpdate:  mu: +0.246225458  nElectrons: 338.000000
	SubspaceRotationAdjust: set factor to 0.179
ElecMinimize: Iter:  28  F: -1819.304412289698803  |grad|_K:  4.156e-08  alpha:  4.672e-01  linmin: -1.170e-06  t[s]:  33433.60
	FillingsUpdate:  mu: +0.246226887  nElectrons: 338.000000
	SubspaceRotationAdjust: set factor to 0.162
ElecMinimize: Iter:  29  F: -1819.304412331905951  |grad|_K:  4.046e-08  alpha:  4.558e-01  linmin: -3.631e-07  t[s]:  33883.23
	FillingsUpdate:  mu: +0.246227489  nElectrons: 338.000000
	SubspaceRotationAdjust: set factor to 0.14
ElecMinimize: Iter:  30  F: -1819.304412352105828  |grad|_K:  3.534e-08  alpha:  2.318e-01  linmin:  3.956e-07  t[s]:  34331.84
	FillingsUpdate:  mu: +0.246227585  nElectrons: 338.000000
	SubspaceRotationAdjust: set factor to 0.18
ElecMinimize: Iter:  31  F: -1819.304412375048742  |grad|_K:  2.426e-08  alpha:  3.438e-01  linmin: -3.308e-07  t[s]:  34783.63
	FillingsUpdate:  mu: +0.246226174  nElectrons: 338.000000
	SubspaceRotationAdjust: set factor to 0.214
ElecMinimize: Iter:  32  F: -1819.304412391315282  |grad|_K:  2.342e-08  alpha:  5.181e-01  linmin:  1.156e-06  t[s]:  35237.96
	FillingsUpdate:  mu: +0.246224935  nElectrons: 338.000000
	SubspaceRotationAdjust: set factor to 0.178
ElecMinimize: Iter:  33  F: -1819.304412399357489  |grad|_K:  2.596e-08  alpha:  2.771e-01  linmin: -3.106e-07  t[s]:  35694.85
	FillingsUpdate:  mu: +0.246223422  nElectrons: 338.000000
	SubspaceRotationAdjust: set factor to 0.155
ElecMinimize: Iter:  34  F: -1819.304412407120708  |grad|_K:  1.561e-08  alpha:  2.168e-01  linmin: -7.339e-07  t[s]:  36147.01
ElecMinimize: Converged (|Delta F|<1.000000e-08 for 2 iters).
Setting wave functions to eigenvectors of Hamiltonian

# Ionic positions in lattice coordinates:
ion H   0.626215465048640   0.718705597380213   0.333080660773230 1
ion H   0.311950069002273   0.456604019307270   0.333006733328879 1
ion C   0.545152463955908   0.552018975782401   0.332825659858049 1
ion O   0.590562043714347   0.343210478864291   0.333113221125031 1
ion O   0.380399585970098   0.609911317380776   0.333173730555353 1
ion Pt   0.000000000000000   0.000000000000000  -0.166660000000000 0
ion Pt   0.000000000000000   0.500000000000000  -0.166660000000000 0
ion Pt   0.500000000000000   0.000000000000000  -0.166660000000000 0
ion Pt   0.500000000000000   0.500000000000000  -0.166660000000000 0
ion Pt   0.250000000000000   0.250000000000000  -0.083330000000000 0
ion Pt   0.250000000000000   0.750000000000000  -0.083330000000000 0
ion Pt   0.750000000000000   0.250000000000000  -0.083330000000000 0
ion Pt   0.750000000000000   0.750000000000000  -0.083330000000000 0
ion Pt  -0.000003906660689  -0.000002764357727  -0.000004080997093 1
ion Pt  -0.000003336388286   0.500001947288439  -0.000001195666201 1
ion Pt   0.499997682831748  -0.000001400539021   0.000012859501515 1
ion Pt   0.500002434150675   0.500000406095213   0.000041452110768 1
ion Pt   0.249931361611379   0.249964612909855   0.083969393436114 1
ion Pt   0.249975839597727   0.750016306405858   0.083976132475227 1
ion Pt   0.750032213150436   0.249974134427023   0.083969231050806 1
ion Pt   0.750057464986456   0.750034822610065   0.083972590878508 1
ion Pt   0.000001668368944   0.000000495540157   0.166037329045472 1
ion Pt   0.000004334723939   0.499996130684817   0.166031970693646 1
ion Pt   0.499999160258306   0.000041622283958   0.165987906111337 1
ion Pt   0.500063142446794   0.500027431441483   0.166028339025416 1


# Forces in Lattice coordinates:
force H  -0.014564246806129  -0.060241330354138   0.029723048116382 1
force H   0.129028097038332   0.084176290885865  -0.027292225761387 1
force C  -0.083479549137550  -0.030599095343357  -0.148020230039379 1
force O   0.255530703104330  -0.079078880253979   0.060623027794397 1
force O  -0.301711108696071   0.080713802473801   0.128420358499356 1
force Pt  -0.000040076261753  -0.000033226263929   0.626874915761264 0
force Pt   0.000142789462970   0.000008257693138   0.623961689592344 0
force Pt  -0.000069594785706  -0.000307898103099   0.632004023111592 0
force Pt  -0.000076260349712   0.000166487343412   0.644754840317141 0
force Pt  -0.001241597629899   0.000008451292227  -0.630423157212092 0
force Pt  -0.001602772215734  -0.000092121644166  -0.630843367506654 0
force Pt   0.001357922706802   0.000057264433813  -0.633957127155710 0
force Pt   0.001549747317427  -0.000086628165449  -0.630652363266663 0
force Pt  -0.000621787148240  -0.000283732013785  -0.017054452936169 1
force Pt  -0.000617717726180   0.000191971351879  -0.014137928568035 1
force Pt  -0.000404756429504  -0.000194273995791  -0.000032970335535 1
force Pt   0.000535618978290   0.000152785609669   0.024768722605133 1
force Pt  -0.013432295622957  -0.002868054090189   0.559576807376980 1
force Pt  -0.004974184246866   0.001006375791829   0.564383545678547 1
force Pt   0.007148095143640  -0.002226053175679   0.556881208225495 1
force Pt   0.012047555163591   0.003159631772673   0.560968109716584 1
force Pt   0.000460906384017   0.000054205955080  -0.557225937813253 1
force Pt   0.001308367303036  -0.000448811238558  -0.561366085353660 1
force Pt  -0.000143888037026   0.004557199169626  -0.599495022256358 1
force Pt   0.013274828074414   0.001316731291914  -0.574213868863930 1

# Energy components:
   Eewald =     1972.8144979350940957
       EH =     3660.3330223625830513
     Eloc =    -7774.4426832723074767
      Enl =      -15.8600375439724015
      Exc =     -575.4066533322272790
 Exc_core =      324.9916762181231320
       KE =      588.5222626107007500
-------------------------------------
     Etot =    -1819.0479150220057818
       TS =        0.2564973851149923
-------------------------------------
        F =    -1819.3044124071207079

IonicMinimize: Iter:   1  F: -1819.304412407120708  |grad|_K:  8.505e-03  alpha:  1.000e+00  linmin: -3.958e-01  t[s]:  36221.16

#--- Lowdin population analysis ---
# oxidation-state H +0.215 +0.424
# oxidation-state C +0.429
# oxidation-state O -0.320 -0.376
# oxidation-state Pt +0.069 +0.069 +0.069 +0.069 -0.049 -0.049 -0.049 -0.049 +0.008 +0.007 +0.008 +0.007 -0.051 -0.045 -0.044 -0.048 +0.056 +0.040 +0.047 -0.010


-------- Electronic minimization -----------
	FillingsUpdate:  mu: +0.241600766  nElectrons: 338.000000
ElecMinimize: Iter:   0  F: -1818.918560599535340  |grad|_K:  1.422e-04  alpha:  1.000e+00
	FillingsUpdate:  mu: +0.272408150  nElectrons: 338.000000
	SubspaceRotationAdjust: set factor to 0.108
ElecMinimize: Iter:   1  F: -1819.238156285240166  |grad|_K:  7.192e-05  alpha:  2.971e-01  linmin:  9.163e-04  t[s]:  37017.11
	FillingsUpdate:  mu: +0.246771002  nElectrons: 338.000000
	SubspaceRotationAdjust: set factor to 0.0579
ElecMinimize: Iter:   2  F: -1819.277567855240022  |grad|_K:  2.646e-05  alpha:  1.433e-01  linmin:  6.334e-05  t[s]:  37465.39
	FillingsUpdate:  mu: +0.247121089  nElectrons: 338.000000
	SubspaceRotationAdjust: set factor to 0.101
ElecMinimize: Iter:   3  F: -1819.290433435026898  |grad|_K:  1.156e-05  alpha:  3.444e-01  linmin: -3.101e-05  t[s]:  37913.13
	FillingsUpdate:  mu: +0.247104503  nElectrons: 338.000000
	SubspaceRotationAdjust: set factor to 0.0816
ElecMinimize: Iter:   4  F: -1819.293254630577167  |grad|_K:  8.745e-06  alpha:  3.950e-01  linmin: -5.798e-05  t[s]:  38368.84
	FillingsUpdate:  mu: +0.247184195  nElectrons: 338.000000
	SubspaceRotationAdjust: set factor to 0.0875
ElecMinimize: Iter:   5  F: -1819.295830172696014  |grad|_K:  1.058e-05  alpha:  6.327e-01  linmin:  1.019e-04  t[s]:  38824.32
	FillingsUpdate:  mu: +0.246905937  nElectrons: 338.000000
	SubspaceRotationAdjust: set factor to 0.105
ElecMinimize: Iter:   6  F: -1819.299928814151372  |grad|_K:  9.876e-06  alpha:  6.919e-01  linmin: -7.756e-05  t[s]:  39276.17
	FillingsUpdate:  mu: +0.247112889  nElectrons: 338.000000
	SubspaceRotationAdjust: set factor to 0.11
ElecMinimize: Iter:   7  F: -1819.303838268207301  |grad|_K:  1.068e-05  alpha:  7.431e-01  linmin: -7.091e-05  t[s]:  39728.38
	FillingsUpdate:  mu: +0.247267089  nElectrons: 338.000000
	SubspaceRotationAdjust: set factor to 0.0884
ElecMinimize: Iter:   8  F: -1819.306577185487640  |grad|_K:  1.010e-05  alpha:  4.312e-01  linmin: -7.827e-05  t[s]:  40182.43
	FillingsUpdate:  mu: +0.246192554  nElectrons: 338.000000
	SubspaceRotationAdjust: set factor to 0.0778
ElecMinimize: Iter:   9  F: -1819.308408105006947  |grad|_K:  5.854e-06  alpha:  3.352e-01  linmin: -4.190e-05  t[s]:  40633.77
	FillingsUpdate:  mu: +0.246025553  nElectrons: 338.000000
	SubspaceRotationAdjust: set factor to 0.0867
ElecMinimize: Iter:  10  F: -1819.309162965862924  |grad|_K:  3.407e-06  alpha:  4.105e-01  linmin: -6.906e-06  t[s]:  41086.98
	FillingsUpdate:  mu: +0.246014697  nElectrons: 338.000000
	SubspaceRotationAdjust: set factor to 0.0739
ElecMinimize: Iter:  11  F: -1819.309406660833247  |grad|_K:  2.288e-06  alpha:  3.929e-01  linmin:  1.879e-05  t[s]:  41538.53
	FillingsUpdate:  mu: +0.246058888  nElectrons: 338.000000
	SubspaceRotationAdjust: set factor to 0.069
ElecMinimize: Iter:  12  F: -1819.309502396157313  |grad|_K:  1.338e-06  alpha:  3.430e-01  linmin: -8.979e-06  t[s]:  41990.27
	FillingsUpdate:  mu: +0.246111100  nElectrons: 338.000000
	SubspaceRotationAdjust: set factor to 0.0921
ElecMinimize: Iter:  13  F: -1819.309545800193291  |grad|_K:  8.923e-07  alpha:  4.542e-01  linmin:  2.102e-06  t[s]:  42447.61
	FillingsUpdate:  mu: +0.246157587  nElectrons: 338.000000
	SubspaceRotationAdjust: set factor to 0.106
ElecMinimize: Iter:  14  F: -1819.309566225708522  |grad|_K:  7.948e-07  alpha:  4.806e-01  linmin:  3.652e-06  t[s]:  42899.56
	FillingsUpdate:  mu: +0.246202886  nElectrons: 338.000000
	SubspaceRotationAdjust: set factor to 0.114
ElecMinimize: Iter:  15  F: -1819.309582078347603  |grad|_K:  7.321e-07  alpha:  4.701e-01  linmin: -3.047e-06  t[s]:  43353.33
	FillingsUpdate:  mu: +0.246225576  nElectrons: 338.000000
	SubspaceRotationAdjust: set factor to 0.121
ElecMinimize: Iter:  16  F: -1819.309597021313266  |grad|_K:  6.634e-07  alpha:  5.221e-01  linmin:  2.876e-06  t[s]:  43809.58
	FillingsUpdate:  mu: +0.246247514  nElectrons: 338.000000
	SubspaceRotationAdjust: set factor to 0.132
ElecMinimize: Iter:  17  F: -1819.309608688720573  |grad|_K:  5.734e-07  alpha:  4.967e-01  linmin:  2.382e-07  t[s]:  44262.78
	FillingsUpdate:  mu: +0.246278503  nElectrons: 338.000000
	SubspaceRotationAdjust: set factor to 0.148
ElecMinimize: Iter:  18  F: -1819.309617580137683  |grad|_K:  4.481e-07  alpha:  5.066e-01  linmin:  1.180e-06  t[s]:  44713.96
	FillingsUpdate:  mu: +0.246284708  nElectrons: 338.000000
	SubspaceRotationAdjust: set factor to 0.165
ElecMinimize: Iter:  19  F: -1819.309622861201433  |grad|_K:  3.425e-07  alpha:  4.928e-01  linmin: -5.788e-08  t[s]:  45165.15
	FillingsUpdate:  mu: +0.246268464  nElectrons: 338.000000
	SubspaceRotationAdjust: set factor to 0.152
ElecMinimize: Iter:  20  F: -1819.309625201944527  |grad|_K:  3.208e-07  alpha:  3.738e-01  linmin:  3.091e-07  t[s]:  45616.51
	FillingsUpdate:  mu: +0.246252194  nElectrons: 338.000000
	SubspaceRotationAdjust: set factor to 0.113
ElecMinimize: Iter:  21  F: -1819.309626535142570  |grad|_K:  2.318e-07  alpha:  2.427e-01  linmin: -7.125e-08  t[s]:  46070.63
	FillingsUpdate:  mu: +0.246237367  nElectrons: 338.000000
	SubspaceRotationAdjust: set factor to 0.119
ElecMinimize: Iter:  22  F: -1819.309627507123196  |grad|_K:  1.468e-07  alpha:  3.389e-01  linmin:  6.329e-07  t[s]:  46525.94
	FillingsUpdate:  mu: +0.246231839  nElectrons: 338.000000
	SubspaceRotationAdjust: set factor to 0.146
ElecMinimize: Iter:  23  F: -1819.309628010757933  |grad|_K:  1.039e-07  alpha:  4.378e-01  linmin: -2.361e-06  t[s]:  46981.60
	FillingsUpdate:  mu: +0.246229413  nElectrons: 338.000000
	SubspaceRotationAdjust: set factor to 0.16
ElecMinimize: Iter:  24  F: -1819.309628279282606  |grad|_K:  9.208e-08  alpha:  4.654e-01  linmin: -3.178e-07  t[s]:  47436.75
	FillingsUpdate:  mu: +0.246227272  nElectrons: 338.000000
	SubspaceRotationAdjust: set factor to 0.139
ElecMinimize: Iter:  25  F: -1819.309628415637690  |grad|_K:  8.458e-08  alpha:  3.014e-01  linmin: -4.457e-07  t[s]:  47894.51
	FillingsUpdate:  mu: +0.246225623  nElectrons: 338.000000
	SubspaceRotationAdjust: set factor to 0.138
ElecMinimize: Iter:  26  F: -1819.309628534131434  |grad|_K:  6.177e-08  alpha:  3.104e-01  linmin:  1.889e-06  t[s]:  48349.74
	FillingsUpdate:  mu: +0.246224843  nElectrons: 338.000000
	SubspaceRotationAdjust: set factor to 0.157
ElecMinimize: Iter:  27  F: -1819.309628638505956  |grad|_K:  5.119e-08  alpha:  5.123e-01  linmin: -1.936e-06  t[s]:  48805.59
	FillingsUpdate:  mu: +0.246224574  nElectrons: 338.000000
	SubspaceRotationAdjust: set factor to 0.178
ElecMinimize: Iter:  28  F: -1819.309628704435454  |grad|_K:  3.860e-08  alpha:  4.702e-01  linmin: -1.029e-06  t[s]:  49258.37
	FillingsUpdate:  mu: +0.246224682  nElectrons: 338.000000
	SubspaceRotationAdjust: set factor to 0.189
ElecMinimize: Iter:  29  F: -1819.309628741461893  |grad|_K:  3.139e-08  alpha:  4.646e-01  linmin:  1.797e-06  t[s]:  49715.02
	FillingsUpdate:  mu: +0.246226003  nElectrons: 338.000000
	SubspaceRotationAdjust: set factor to 0.154
ElecMinimize: Iter:  30  F: -1819.309628757849396  |grad|_K:  3.010e-08  alpha:  3.142e-01  linmin: -1.172e-06  t[s]:  50167.93
	FillingsUpdate:  mu: +0.246227083  nElectrons: 338.000000
	SubspaceRotationAdjust: set factor to 0.112
ElecMinimize: Iter:  31  F: -1819.309628767271306  |grad|_K:  1.808e-08  alpha:  1.935e-01  linmin:  1.612e-06  t[s]:  50613.17
	FillingsUpdate:  mu: +0.246227990  nElectrons: 338.000000
	SubspaceRotationAdjust: set factor to 0.147
ElecMinimize: Iter:  32  F: -1819.309628774358316  |grad|_K:  1.168e-08  alpha:  3.974e-01  linmin: -2.255e-05  t[s]:  51067.79
ElecMinimize: Converged (|Delta F|<1.000000e-08 for 2 iters).
Setting wave functions to eigenvectors of Hamiltonian

# Ionic positions in lattice coordinates:
ion H   0.626321105889670   0.718223427627266   0.333144905575480 1
ion H   0.312374025184491   0.456190311162018   0.332957704961751 1
ion C   0.543617552087908   0.550514670183768   0.332526267137252 1
ion O   0.593078399432972   0.341802212897742   0.333235639559764 1
ion O   0.378764810472792   0.613629447166009   0.333414818754694 1
ion Pt   0.000000000000000   0.000000000000000  -0.166660000000000 0
ion Pt   0.000000000000000   0.500000000000000  -0.166660000000000 0
ion Pt   0.500000000000000   0.000000000000000  -0.166660000000000 0
ion Pt   0.500000000000000   0.500000000000000  -0.166660000000000 0
ion Pt   0.250000000000000   0.250000000000000  -0.083330000000000 0
ion Pt   0.250000000000000   0.750000000000000  -0.083330000000000 0
ion Pt   0.750000000000000   0.250000000000000  -0.083330000000000 0
ion Pt   0.750000000000000   0.750000000000000  -0.083330000000000 0
ion Pt  -0.000009585021636  -0.000007603358045  -0.000030237035773 1
ion Pt  -0.000008744195832   0.500005254308897  -0.000021941445567 1
ion Pt   0.499994083256240  -0.000004502943452   0.000018322241617 1
ion Pt   0.500006926638330   0.500002548010077   0.000094660856653 1
ion Pt   0.249815444595070   0.249912508733547   0.085044192410613 1
ion Pt   0.249933452533360   0.750036255347988   0.085060698086038 1
ion Pt   0.750092051131730   0.249934379133736   0.085040102645674 1
ion Pt   0.750159676436704   0.750090439869034   0.085050751021033 1
ion Pt   0.000005351572849   0.000001406389650   0.164973059616304 1
ion Pt   0.000014618250849   0.499988692292916   0.164959480200975 1
ion Pt   0.499997873777161   0.000118154837065   0.164841967054587 1
ion Pt   0.500175690478970   0.500056145305391   0.164935905384597 1


# Forces in Lattice coordinates:
force H  -0.073587106457041  -0.109828220161435   0.006201841170363 1
force H   0.126094929487852   0.170007212202434  -0.018688036553587 1
force C   0.098472740184785  -0.001040746380584  -0.086565830418805 1
force O   0.037071132557526   0.078192868678757   0.028181470120997 1
force O  -0.203396748328510  -0.142418950314008   0.099092906737671 1
force Pt  -0.000029978820698  -0.000045502115012   0.636417810595263 0
force Pt   0.000175615239578  -0.000012137183275   0.634012209009412 0
force Pt  -0.000072401239057  -0.000336125793111   0.643395514186555 0
force Pt  -0.000061842765678   0.000159601928666   0.655650958873251 0
force Pt  -0.000531269429051   0.000262016166498  -0.598218864944620 0
force Pt  -0.000873175507356  -0.000316068403014  -0.599768536773156 0
force Pt   0.000526593179333   0.000274473264627  -0.603388468491421 0
force Pt   0.000770740414336  -0.000292166942058  -0.600055537238060 0
force Pt  -0.000361377734939  -0.000274766079611  -0.037386446354500 1
force Pt  -0.000329982803923   0.000151632194551  -0.034696052734513 1
force Pt  -0.000345085351238  -0.000203951084444  -0.022251943306802 1
force Pt   0.000359924275082   0.000157828607405  -0.003156759365617 1
force Pt  -0.010574300123886  -0.001464622292960   0.440408376117340 1
force Pt  -0.004292931524608   0.000137104300938   0.441647672794806 1
force Pt   0.007055193995582  -0.001331745508122   0.433690074077723 1
force Pt   0.010776120514119   0.002273724430823   0.438858629576632 1
force Pt   0.000381047389448  -0.000109976868920  -0.453503866085564 1
force Pt   0.000966321321525  -0.000330249967280  -0.457434742516610 1
force Pt   0.000012598431202   0.004136025778548  -0.485200337099333 1
force Pt   0.011773477713508   0.001112309123958  -0.458569914750241 1

# Energy components:
   Eewald =     1977.5591465018478630
       EH =     3665.0057798085040304
     Eloc =    -7783.8176391163597145
      Enl =      -15.8608415470161184
      Exc =     -575.3994273804046315
 Exc_core =      324.9916830749522774
       KE =      588.4673422045674442
-------------------------------------
     Etot =    -1819.0539564539094499
       TS =        0.2556723204489051
-------------------------------------
        F =    -1819.3096287743583162

IonicMinimize: Iter:   2  F: -1819.309628774358316  |grad|_K:  7.168e-03  alpha:  1.000e+00  linmin: -4.053e-01  t[s]:  51140.15

#--- Lowdin population analysis ---
# oxidation-state H +0.210 +0.420
# oxidation-state C +0.426
# oxidation-state O -0.321 -0.371
# oxidation-state Pt +0.070 +0.070 +0.070 +0.069 -0.049 -0.049 -0.050 -0.049 +0.007 +0.006 +0.007 +0.007 -0.051 -0.045 -0.043 -0.048 +0.059 +0.043 +0.048 -0.010


-------- Electronic minimization -----------
	FillingsUpdate:  mu: +0.243225093  nElectrons: 338.000000
ElecMinimize: Iter:   0  F: -1816.972641115434271  |grad|_K:  3.462e-04  alpha:  1.000e+00
	FillingsUpdate:  mu: +0.313548929  nElectrons: 338.000000
	SubspaceRotationAdjust: set factor to 0.112
ElecMinimize: Iter:   1  F: -1818.923924020188224  |grad|_K:  1.575e-04  alpha:  3.134e-01  linmin:  8.275e-03  t[s]:  51941.09
	FillingsUpdate:  mu: +0.252288037  nElectrons: 338.000000
	SubspaceRotationAdjust: set factor to 0.0609
ElecMinimize: Iter:   2  F: -1819.121406387036586  |grad|_K:  6.555e-05  alpha:  1.536e-01  linmin:  2.235e-04  t[s]:  52394.22
	FillingsUpdate:  mu: +0.248510091  nElectrons: 338.000000
	SubspaceRotationAdjust: set factor to 0.108
ElecMinimize: Iter:   3  F: -1819.196222784365091  |grad|_K:  2.870e-05  alpha:  3.266e-01  linmin: -1.299e-04  t[s]:  52845.76
	FillingsUpdate:  mu: +0.249813566  nElectrons: 338.000000
	SubspaceRotationAdjust: set factor to 0.0834
ElecMinimize: Iter:   4  F: -1819.213477717052001  |grad|_K:  2.274e-05  alpha:  3.914e-01  linmin: -1.797e-04  t[s]:  53298.95
	FillingsUpdate:  mu: +0.249900182  nElectrons: 338.000000
	SubspaceRotationAdjust: set factor to 0.0867
ElecMinimize: Iter:   5  F: -1819.229259983402017  |grad|_K:  2.727e-05  alpha:  5.752e-01  linmin:  2.395e-04  t[s]:  53750.95
	FillingsUpdate:  mu: +0.249550408  nElectrons: 338.000000
	SubspaceRotationAdjust: set factor to 0.115
ElecMinimize: Iter:   6  F: -1819.255871677063396  |grad|_K:  2.572e-05  alpha:  6.837e-01  linmin: -1.273e-04  t[s]:  54203.07
	FillingsUpdate:  mu: +0.252610235  nElectrons: 338.000000
	SubspaceRotationAdjust: set factor to 0.106
ElecMinimize: Iter:   7  F: -1819.276200966144415  |grad|_K:  2.859e-05  alpha:  5.770e-01  linmin: -2.043e-04  t[s]:  54655.88
	FillingsUpdate:  mu: +0.250656727  nElectrons: 338.000000
	SubspaceRotationAdjust: set factor to 0.0764
ElecMinimize: Iter:   8  F: -1819.292695838252030  |grad|_K:  2.412e-05  alpha:  3.418e-01  linmin: -1.643e-04  t[s]:  55112.11
	FillingsUpdate:  mu: +0.247435562  nElectrons: 338.000000
	SubspaceRotationAdjust: set factor to 0.112
ElecMinimize: Iter:   9  F: -1819.307146436583935  |grad|_K:  1.610e-05  alpha:  4.521e-01  linmin: -1.345e-04  t[s]:  55562.42
	FillingsUpdate:  mu: +0.246638282  nElectrons: 338.000000
	SubspaceRotationAdjust: set factor to 0.0885
ElecMinimize: Iter:  10  F: -1819.312225751600636  |grad|_K:  1.047e-05  alpha:  3.627e-01  linmin: -7.210e-05  t[s]:  56016.98
	FillingsUpdate:  mu: +0.246021032  nElectrons: 338.000000
	SubspaceRotationAdjust: set factor to 0.0613
ElecMinimize: Iter:  11  F: -1819.313965058631538  |grad|_K:  6.358e-06  alpha:  2.950e-01  linmin:  3.576e-05  t[s]:  56470.44
	FillingsUpdate:  mu: +0.245946941  nElectrons: 338.000000
	SubspaceRotationAdjust: set factor to 0.0752
ElecMinimize: Iter:  12  F: -1819.314838472213751  |grad|_K:  3.511e-06  alpha:  4.052e-01  linmin: -3.416e-05  t[s]:  56924.90
	FillingsUpdate:  mu: +0.246074264  nElectrons: 338.000000
	SubspaceRotationAdjust: set factor to 0.0803
ElecMinimize: Iter:  13  F: -1819.315114942152150  |grad|_K:  2.346e-06  alpha:  4.196e-01  linmin: -1.365e-05  t[s]:  57380.09
	FillingsUpdate:  mu: +0.246136890  nElectrons: 338.000000
	SubspaceRotationAdjust: set factor to 0.0868
ElecMinimize: Iter:  14  F: -1819.315232249977498  |grad|_K:  1.650e-06  alpha:  3.989e-01  linmin:  9.851e-06  t[s]:  57832.73
	FillingsUpdate:  mu: +0.246212834  nElectrons: 338.000000
	SubspaceRotationAdjust: set factor to 0.107
ElecMinimize: Iter:  15  F: -1819.315309518098729  |grad|_K:  1.361e-06  alpha:  5.314e-01  linmin: -1.083e-05  t[s]:  58286.93
	FillingsUpdate:  mu: +0.246231355  nElectrons: 338.000000
	SubspaceRotationAdjust: set factor to 0.131
ElecMinimize: Iter:  16  F: -1819.315370257401128  |grad|_K:  1.315e-06  alpha:  6.138e-01  linmin:  1.935e-06  t[s]:  58744.36
	FillingsUpdate:  mu: +0.246258931  nElectrons: 338.000000
	SubspaceRotationAdjust: set factor to 0.146
ElecMinimize: Iter:  17  F: -1819.315418401212582  |grad|_K:  1.279e-06  alpha:  5.218e-01  linmin:  2.999e-06  t[s]:  59198.89
	FillingsUpdate:  mu: +0.246340305  nElectrons: 338.000000
	SubspaceRotationAdjust: set factor to 0.132
ElecMinimize: Iter:  18  F: -1819.315456574147902  |grad|_K:  1.316e-06  alpha:  4.369e-01  linmin: -2.950e-06  t[s]:  59647.23
	FillingsUpdate:  mu: +0.246379525  nElectrons: 338.000000
	SubspaceRotationAdjust: set factor to 0.106
ElecMinimize: Iter:  19  F: -1819.315483768409422  |grad|_K:  1.001e-06  alpha:  2.939e-01  linmin:  1.258e-07  t[s]:  60100.31
	FillingsUpdate:  mu: +0.246388706  nElectrons: 338.000000
	SubspaceRotationAdjust: set factor to 0.122
ElecMinimize: Iter:  20  F: -1819.315505919724956  |grad|_K:  6.657e-07  alpha:  4.142e-01  linmin: -1.507e-07  t[s]:  60554.75
	FillingsUpdate:  mu: +0.246361895  nElectrons: 338.000000
	SubspaceRotationAdjust: set factor to 0.144
ElecMinimize: Iter:  21  F: -1819.315517665145080  |grad|_K:  5.214e-07  alpha:  4.964e-01  linmin:  1.005e-06  t[s]:  61009.16
	FillingsUpdate:  mu: +0.246330478  nElectrons: 338.000000
	SubspaceRotationAdjust: set factor to 0.153
ElecMinimize: Iter:  22  F: -1819.315523597221272  |grad|_K:  4.151e-07  alpha:  4.088e-01  linmin:  1.799e-06  t[s]:  61464.85
	FillingsUpdate:  mu: +0.246310731  nElectrons: 338.000000
	SubspaceRotationAdjust: set factor to 0.127
ElecMinimize: Iter:  23  F: -1819.315526308823110  |grad|_K:  3.440e-07  alpha:  2.949e-01  linmin: -5.058e-07  t[s]:  61920.39
	FillingsUpdate:  mu: +0.246290584  nElectrons: 338.000000
	SubspaceRotationAdjust: set factor to 0.111
ElecMinimize: Iter:  24  F: -1819.315528123837339  |grad|_K:  2.307e-07  alpha:  2.874e-01  linmin:  3.246e-06  t[s]:  62372.24
	FillingsUpdate:  mu: +0.246280317  nElectrons: 338.000000
	SubspaceRotationAdjust: set factor to 0.133
ElecMinimize: Iter:  25  F: -1819.315529349633380  |grad|_K:  1.575e-07  alpha:  4.317e-01  linmin:  8.964e-06  t[s]:  62826.60
	FillingsUpdate:  mu: +0.246276196  nElectrons: 338.000000
	SubspaceRotationAdjust: set factor to 0.162
ElecMinimize: Iter:  26  F: -1819.315529921317875  |grad|_K:  1.172e-07  alpha:  4.322e-01  linmin:  1.193e-06  t[s]:  63283.21
	FillingsUpdate:  mu: +0.246272528  nElectrons: 338.000000
	SubspaceRotationAdjust: set factor to 0.149
ElecMinimize: Iter:  27  F: -1819.315530238103747  |grad|_K:  1.193e-07  alpha:  4.315e-01  linmin:  1.231e-06  t[s]:  63735.01
	FillingsUpdate:  mu: +0.246271348  nElectrons: 338.000000
	SubspaceRotationAdjust: set factor to 0.124
ElecMinimize: Iter:  28  F: -1819.315530438759879  |grad|_K:  9.841e-08  alpha:  2.641e-01  linmin: -2.902e-06  t[s]:  64186.88
	FillingsUpdate:  mu: +0.246270231  nElectrons: 338.000000
	SubspaceRotationAdjust: set factor to 0.142
ElecMinimize: Iter:  29  F: -1819.315530633132539  |grad|_K:  7.277e-08  alpha:  3.763e-01  linmin:  8.647e-06  t[s]:  64639.97
	FillingsUpdate:  mu: +0.246271060  nElectrons: 338.000000
	SubspaceRotationAdjust: set factor to 0.163
ElecMinimize: Iter:  30  F: -1819.315530773581486  |grad|_K:  6.186e-08  alpha:  4.979e-01  linmin:  1.658e-05  t[s]:  65093.77
	FillingsUpdate:  mu: +0.246273570  nElectrons: 338.000000
	SubspaceRotationAdjust: set factor to 0.153
ElecMinimize: Iter:  31  F: -1819.315530851666608  |grad|_K:  5.615e-08  alpha:  3.835e-01  linmin: -7.966e-06  t[s]:  65540.87
	FillingsUpdate:  mu: +0.246275036  nElectrons: 338.000000
	SubspaceRotationAdjust: set factor to 0.117
ElecMinimize: Iter:  32  F: -1819.315530890251239  |grad|_K:  4.218e-08  alpha:  2.297e-01  linmin:  6.008e-06  t[s]:  66001.81
	FillingsUpdate:  mu: +0.246277082  nElectrons: 338.000000
	SubspaceRotationAdjust: set factor to 0.135
ElecMinimize: Iter:  33  F: -1819.315530924754285  |grad|_K:  2.800e-08  alpha:  3.669e-01  linmin:  7.991e-05  t[s]:  66455.91
	FillingsUpdate:  mu: +0.246278239  nElectrons: 338.000000
	SubspaceRotationAdjust: set factor to 0.164
ElecMinimize: Iter:  34  F: -1819.315530943556951  |grad|_K:  2.257e-08  alpha:  4.583e-01  linmin: -7.915e-06  t[s]:  66910.26
	FillingsUpdate:  mu: +0.246278984  nElectrons: 338.000000
	SubspaceRotationAdjust: set factor to 0.14
ElecMinimize: Iter:  35  F: -1819.315530952961353  |grad|_K:  2.178e-08  alpha:  3.434e-01  linmin:  5.843e-05  t[s]:  67365.05
	FillingsUpdate:  mu: +0.246279639  nElectrons: 338.000000
	SubspaceRotationAdjust: set factor to 0.124
ElecMinimize: Iter:  36  F: -1819.315530959339640  |grad|_K:  1.601e-08  alpha:  2.573e-01  linmin:  8.224e-07  t[s]:  67818.56
ElecMinimize: Converged (|Delta F|<1.000000e-08 for 2 iters).
Setting wave functions to eigenvectors of Hamiltonian

# Ionic positions in lattice coordinates:
ion H   0.625456686275834   0.714868670441044   0.333227306930484 1
ion H   0.313052536864567   0.457398099656768   0.332853477533050 1
ion C   0.542458869620939   0.546445288796477   0.331906871692221 1
ion O   0.596007150575958   0.344767410831913   0.333450735246172 1
ion O   0.376800484043767   0.616595596541277   0.334003891059537 1
ion Pt   0.000000000000000   0.000000000000000  -0.166660000000000 0
ion Pt   0.000000000000000   0.500000000000000  -0.166660000000000 0
ion Pt   0.500000000000000   0.000000000000000  -0.166660000000000 0
ion Pt   0.500000000000000   0.500000000000000  -0.166660000000000 0
ion Pt   0.250000000000000   0.250000000000000  -0.083330000000000 0
ion Pt   0.250000000000000   0.750000000000000  -0.083330000000000 0
ion Pt   0.750000000000000   0.250000000000000  -0.083330000000000 0
ion Pt   0.750000000000000   0.750000000000000  -0.083330000000000 0
ion Pt  -0.000021314508276  -0.000022104645150  -0.000211460748427 1
ion Pt  -0.000018804999658   0.500013591651034  -0.000187754797163 1
ion Pt   0.499984257302808  -0.000014346955401  -0.000075741997885 1
ion Pt   0.500016607415373   0.500009004314809   0.000118777219062 1
ion Pt   0.249523732015788   0.249814857375266   0.087750814117560 1
ion Pt   0.249818714143029   0.750059411283195   0.087779437531508 1
ion Pt   0.750273458975207   0.249852148139654   0.087714684224415 1
ion Pt   0.750444666177735   0.750221924635043   0.087753050599844 1
ion Pt   0.000014635919878  -0.000003477068767   0.162223652825459 1
ion Pt   0.000037603088235   0.499971480859806   0.162185500983641 1
ion Pt   0.499997517852834   0.000333450232844   0.161894388482215 1
ion Pt   0.500487067945235   0.500140301567534   0.162164956214046 1


# Forces in Lattice coordinates:
force H  -0.096515015838694  -0.102755447979036  -0.048921977503587 1
force H   0.033905699871301   0.172417010527021   0.006920627332287 1
force C   0.029626415514034   0.510534084899529   0.073004470481734 1
force O   0.061913864258246  -0.296289906973058   0.000924500687300 1
force O  -0.037327604587462  -0.290354308062396   0.001198312131154 1
force Pt   0.000013970314212  -0.000011174698889   0.656779228769861 0
force Pt   0.000178979600085   0.000007627585016   0.655733791131471 0
force Pt  -0.000056503419538  -0.000283532637218   0.671805987709101 0
force Pt   0.000021799833894   0.000133374411901   0.679846718777790 0
force Pt   0.001228413273532   0.000863944661193  -0.533603310436277 0
force Pt   0.001100795471202  -0.000858498884502  -0.537978801991134 0
force Pt  -0.001497734141025   0.000752830991935  -0.542028547582893 0
force Pt  -0.001211606424052  -0.000770766193403  -0.538492087228876 0
force Pt   0.000278042889837  -0.000082807254911  -0.100488761349539 1
force Pt   0.000480122600440   0.000035526369883  -0.100947890433330 1
force Pt  -0.000308739589001  -0.000119674141713  -0.094106077412173 1
force Pt  -0.000192824460553   0.000146296113853  -0.089768018483683 1
force Pt  -0.001621668340133   0.001967631486242   0.157452649969006 1
force Pt  -0.001610061443514  -0.001837667688905   0.153069481192429 1
force Pt   0.005195400926273   0.000980765498981   0.146195201652690 1
force Pt   0.006024606234861   0.000147530213422   0.151580785640746 1
force Pt   0.000249000843360  -0.000503038066724  -0.171001234583374 1
force Pt  -0.000267050233482   0.000078766615500  -0.176163524614760 1
force Pt   0.000452954323158   0.001554182973844  -0.190737436185226 1
force Pt   0.000586904244258   0.002309220760027  -0.187149576531641 1

# Energy components:
   Eewald =     1990.8999159555651204
       EH =     3678.0714627720608405
     Eloc =    -7810.2853116740734549
      Enl =      -15.8103547586836477
      Exc =     -575.4568879341913998
 Exc_core =      324.9916943379111558
       KE =      588.5273483816989710
-------------------------------------
     Etot =    -1819.0621329197124396
       TS =        0.2533980396272160
-------------------------------------
        F =    -1819.3155309593396396

IonicMinimize: Iter:   3  F: -1819.315530959339640  |grad|_K:  9.550e-03  alpha:  1.000e+00  linmin: -3.221e-02  t[s]:  67891.15

#--- Lowdin population analysis ---
# oxidation-state H +0.197 +0.417
# oxidation-state C +0.431
# oxidation-state O -0.304 -0.383
# oxidation-state Pt +0.070 +0.070 +0.070 +0.070 -0.050 -0.050 -0.050 -0.050 +0.005 +0.004 +0.005 +0.004 -0.049 -0.043 -0.041 -0.046 +0.064 +0.048 +0.053 -0.008


-------- Electronic minimization -----------
	FillingsUpdate:  mu: +0.235836891  nElectrons: 338.000000
ElecMinimize: Iter:   0  F: -1817.471656602302346  |grad|_K:  3.031e-04  alpha:  1.000e+00
	FillingsUpdate:  mu: +0.279809431  nElectrons: 338.000000
	SubspaceRotationAdjust: set factor to 0.107
ElecMinimize: Iter:   1  F: -1819.047351554560692  |grad|_K:  1.070e-04  alpha:  3.280e-01  linmin:  7.412e-03  t[s]:  68689.00
	FillingsUpdate:  mu: +0.257556865  nElectrons: 338.000000
	SubspaceRotationAdjust: set factor to 0.0601
ElecMinimize: Iter:   2  F: -1819.171555311269458  |grad|_K:  5.452e-05  alpha:  2.079e-01  linmin:  1.349e-05  t[s]:  69138.68
	FillingsUpdate:  mu: +0.246084988  nElectrons: 338.000000
	SubspaceRotationAdjust: set factor to 0.0898
ElecMinimize: Iter:   3  F: -1819.218438672130333  |grad|_K:  2.295e-05  alpha:  2.952e-01  linmin: -2.057e-04  t[s]:  69590.92
	FillingsUpdate:  mu: +0.248325072  nElectrons: 338.000000
	SubspaceRotationAdjust: set factor to 0.0828
ElecMinimize: Iter:   4  F: -1819.231526929090705  |grad|_K:  1.942e-05  alpha:  4.637e-01  linmin: -8.476e-05  t[s]:  70044.03
	FillingsUpdate:  mu: +0.251243760  nElectrons: 338.000000
	SubspaceRotationAdjust: set factor to 0.0833
ElecMinimize: Iter:   5  F: -1819.245000219459598  |grad|_K:  2.571e-05  alpha:  6.740e-01  linmin:  2.801e-04  t[s]:  70495.30
	FillingsUpdate:  mu: +0.248591213  nElectrons: 338.000000
	SubspaceRotationAdjust: set factor to 0.106
ElecMinimize: Iter:   6  F: -1819.263632318995633  |grad|_K:  2.295e-05  alpha:  5.478e-01  linmin: -1.006e-04  t[s]:  70955.04
	FillingsUpdate:  mu: +0.251713731  nElectrons: 338.000000
	SubspaceRotationAdjust: set factor to 0.106
ElecMinimize: Iter:   7  F: -1819.281862869120459  |grad|_K:  2.592e-05  alpha:  6.341e-01  linmin: -3.057e-04  t[s]:  71404.60
	FillingsUpdate:  mu: +0.251035110  nElectrons: 338.000000
	SubspaceRotationAdjust: set factor to 0.0795
ElecMinimize: Iter:   8  F: -1819.296007988977181  |grad|_K:  2.302e-05  alpha:  3.490e-01  linmin: -2.435e-04  t[s]:  71855.74
	FillingsUpdate:  mu: +0.248084950  nElectrons: 338.000000
	SubspaceRotationAdjust: set factor to 0.116
ElecMinimize: Iter:   9  F: -1819.307881473410362  |grad|_K:  1.533e-05  alpha:  4.039e-01  linmin: -1.179e-04  t[s]:  72311.45
	FillingsUpdate:  mu: +0.247418995  nElectrons: 338.000000
	SubspaceRotationAdjust: set factor to 0.0911
ElecMinimize: Iter:  10  F: -1819.312248467902236  |grad|_K:  1.039e-05  alpha:  3.439e-01  linmin: -8.667e-05  t[s]:  72760.43
	FillingsUpdate:  mu: +0.246683868  nElectrons: 338.000000
	SubspaceRotationAdjust: set factor to 0.0633
ElecMinimize: Iter:  11  F: -1819.313851701447902  |grad|_K:  6.088e-06  alpha:  2.761e-01  linmin:  3.152e-05  t[s]:  73212.47
	FillingsUpdate:  mu: +0.246610125  nElectrons: 338.000000
	SubspaceRotationAdjust: set factor to 0.0817
ElecMinimize: Iter:  12  F: -1819.314638965524637  |grad|_K:  3.383e-06  alpha:  3.985e-01  linmin: -1.967e-05  t[s]:  73667.39
	FillingsUpdate:  mu: +0.246689231  nElectrons: 338.000000
	SubspaceRotationAdjust: set factor to 0.0776
ElecMinimize: Iter:  13  F: -1819.314880362946496  |grad|_K:  2.187e-06  alpha:  3.949e-01  linmin: -1.665e-05  t[s]:  74121.49
	FillingsUpdate:  mu: +0.246700675  nElectrons: 338.000000
	SubspaceRotationAdjust: set factor to 0.0801
ElecMinimize: Iter:  14  F: -1819.314976471075170  |grad|_K:  1.420e-06  alpha:  3.761e-01  linmin:  1.037e-05  t[s]:  74570.29
	FillingsUpdate:  mu: +0.246700096  nElectrons: 338.000000
	SubspaceRotationAdjust: set factor to 0.104
ElecMinimize: Iter:  15  F: -1819.315030958735179  |grad|_K:  1.097e-06  alpha:  5.059e-01  linmin: -5.857e-06  t[s]:  75018.85
	FillingsUpdate:  mu: +0.246659598  nElectrons: 338.000000
	SubspaceRotationAdjust: set factor to 0.128
ElecMinimize: Iter:  16  F: -1819.315068247733052  |grad|_K:  1.103e-06  alpha:  5.802e-01  linmin: -9.921e-07  t[s]:  75477.40
	FillingsUpdate:  mu: +0.246611472  nElectrons: 338.000000
	SubspaceRotationAdjust: set factor to 0.132
ElecMinimize: Iter:  17  F: -1819.315100521773729  |grad|_K:  1.170e-06  alpha:  4.968e-01  linmin:  4.489e-06  t[s]:  75929.37
	FillingsUpdate:  mu: +0.246602651  nElectrons: 338.000000
	SubspaceRotationAdjust: set factor to 0.115
ElecMinimize: Iter:  18  F: -1819.315131841831544  |grad|_K:  1.156e-06  alpha:  4.288e-01  linmin: -3.254e-06  t[s]:  76384.10
	FillingsUpdate:  mu: +0.246596138  nElectrons: 338.000000
	SubspaceRotationAdjust: set factor to 0.107
ElecMinimize: Iter:  19  F: -1819.315161499391479  |grad|_K:  9.071e-07  alpha:  4.155e-01  linmin:  4.492e-06  t[s]:  76834.37
	FillingsUpdate:  mu: +0.246583637  nElectrons: 338.000000
	SubspaceRotationAdjust: set factor to 0.114
ElecMinimize: Iter:  20  F: -1819.315181057412019  |grad|_K:  6.066e-07  alpha:  4.453e-01  linmin: -4.726e-09  t[s]:  77284.71
	FillingsUpdate:  mu: +0.246563168  nElectrons: 338.000000
	SubspaceRotationAdjust: set factor to 0.13
ElecMinimize: Iter:  21  F: -1819.315190340255867  |grad|_K:  4.345e-07  alpha:  4.726e-01  linmin:  9.240e-07  t[s]:  77734.64
	FillingsUpdate:  mu: +0.246547991  nElectrons: 338.000000
	SubspaceRotationAdjust: set factor to 0.155
ElecMinimize: Iter:  22  F: -1819.315194525753213  |grad|_K:  2.943e-07  alpha:  4.153e-01  linmin:  3.284e-07  t[s]:  78192.47
	FillingsUpdate:  mu: +0.246539920  nElectrons: 338.000000
	SubspaceRotationAdjust: set factor to 0.186
ElecMinimize: Iter:  23  F: -1819.315196528360048  |grad|_K:  2.143e-07  alpha:  4.331e-01  linmin: -1.507e-06  t[s]:  78647.11
	FillingsUpdate:  mu: +0.246538785  nElectrons: 338.000000
	SubspaceRotationAdjust: set factor to 0.169
ElecMinimize: Iter:  24  F: -1819.315197512899204  |grad|_K:  2.070e-07  alpha:  4.014e-01  linmin:  4.470e-06  t[s]:  79103.02
	FillingsUpdate:  mu: +0.246542380  nElectrons: 338.000000
	SubspaceRotationAdjust: set factor to 0.13
ElecMinimize: Iter:  25  F: -1819.315197996982079  |grad|_K:  1.596e-07  alpha:  2.116e-01  linmin:  9.279e-07  t[s]:  79553.70
	FillingsUpdate:  mu: +0.246548600  nElectrons: 338.000000
	SubspaceRotationAdjust: set factor to 0.152
ElecMinimize: Iter:  26  F: -1819.315198456743246  |grad|_K:  1.062e-07  alpha:  3.378e-01  linmin: -1.965e-06  t[s]:  80009.79
	FillingsUpdate:  mu: +0.246556391  nElectrons: 338.000000
	SubspaceRotationAdjust: set factor to 0.188
ElecMinimize: Iter:  27  F: -1819.315198749282899  |grad|_K:  9.314e-08  alpha:  4.859e-01  linmin: -1.378e-05  t[s]:  80466.96
	FillingsUpdate:  mu: +0.246562555  nElectrons: 338.000000
	SubspaceRotationAdjust: set factor to 0.162
ElecMinimize: Iter:  28  F: -1819.315198931768236  |grad|_K:  9.774e-08  alpha:  3.934e-01  linmin:  3.441e-07  t[s]:  80917.82
	FillingsUpdate:  mu: +0.246566035  nElectrons: 338.000000
	SubspaceRotationAdjust: set factor to 0.128
ElecMinimize: Iter:  29  F: -1819.315199038840774  |grad|_K:  7.492e-08  alpha:  2.099e-01  linmin: -2.438e-06  t[s]:  81368.84
	FillingsUpdate:  mu: +0.246572581  nElectrons: 338.000000
	SubspaceRotationAdjust: set factor to 0.152
ElecMinimize: Iter:  30  F: -1819.315199163052966  |grad|_K:  5.703e-08  alpha:  4.150e-01  linmin:  1.390e-05  t[s]:  81822.01
	FillingsUpdate:  mu: +0.246577962  nElectrons: 338.000000
	SubspaceRotationAdjust: set factor to 0.158
ElecMinimize: Iter:  31  F: -1819.315199235969203  |grad|_K:  4.682e-08  alpha:  4.204e-01  linmin: -6.956e-06  t[s]:  82274.35
	FillingsUpdate:  mu: +0.246579333  nElectrons: 338.000000
	SubspaceRotationAdjust: set factor to 0.12
ElecMinimize: Iter:  32  F: -1819.315199265027559  |grad|_K:  3.882e-08  alpha:  2.479e-01  linmin: -5.828e-06  t[s]:  82726.63
	FillingsUpdate:  mu: +0.246579792  nElectrons: 338.000000
	SubspaceRotationAdjust: set factor to 0.118
ElecMinimize: Iter:  33  F: -1819.315199289084376  |grad|_K:  2.394e-08  alpha:  2.990e-01  linmin: -2.030e-05  t[s]:  83184.04
	FillingsUpdate:  mu: +0.246579148  nElectrons: 338.000000
	SubspaceRotationAdjust: set factor to 0.146
ElecMinimize: Iter:  34  F: -1819.315199301763187  |grad|_K:  1.788e-08  alpha:  4.184e-01  linmin:  8.026e-05  t[s]:  83636.94
	FillingsUpdate:  mu: +0.246578496  nElectrons: 338.000000
	SubspaceRotationAdjust: set factor to 0.14
ElecMinimize: Iter:  35  F: -1819.315199307564171  |grad|_K:  1.534e-08  alpha:  3.434e-01  linmin:  3.204e-05  t[s]:  84087.90
	FillingsUpdate:  mu: +0.246577668  nElectrons: 338.000000
	SubspaceRotationAdjust: set factor to 0.131
ElecMinimize: Iter:  36  F: -1819.315199311059814  |grad|_K:  1.205e-08  alpha:  2.868e-01  linmin:  3.014e-05  t[s]:  84539.38
ElecMinimize: Converged (|Delta F|<1.000000e-08 for 2 iters).
Setting wave functions to eigenvectors of Hamiltonian
IonicMinimize: 	Wolfe criterion not satisfied: alpha: 1  (E-E0)/|gdotd0|: 0.0375011  gdotd/gdotd0: -0.994425 (taking cubic step)

-------- Electronic minimization -----------
	FillingsUpdate:  mu: +0.247338756  nElectrons: 338.000000
ElecMinimize: Iter:   0  F: -1819.304520673642855  |grad|_K:  9.374e-06  alpha:  1.000e+00
	FillingsUpdate:  mu: +0.245541245  nElectrons: 338.000000
	SubspaceRotationAdjust: set factor to 0.13
ElecMinimize: Iter:   1  F: -1819.307223193559821  |grad|_K:  7.485e-06  alpha:  5.759e-01  linmin: -1.755e-06  t[s]:  85448.59
	FillingsUpdate:  mu: +0.247338149  nElectrons: 338.000000
	SubspaceRotationAdjust: set factor to 0.104
[...]
	FillingsUpdate:  mu: +0.246530748  nElectrons: 338.000000
	SubspaceRotationAdjust: set factor to 0.0912
ElecMinimize: Iter:  13  F: -1819.318807455405704  |grad|_K:  5.019e-08  alpha:  5.437e-01  linmin: -4.507e-06  t[s]: 127091.38
	FillingsUpdate:  mu: +0.246532209  nElectrons: 338.000000
	SubspaceRotationAdjust: set factor to 0.0991
ElecMinimize: Iter:  14  F: -1819.318807536612439  |grad|_K:  4.147e-08  alpha:  6.027e-01  linmin: -4.356e-05  t[s]: 127549.52
	FillingsUpdate:  mu: +0.246534354  nElectrons: 338.000000
	SubspaceRotationAdjust: set factor to 0.113
ElecMinimize: Iter:  15  F: -1819.318807595677754  |grad|_K:  3.651e-08  alpha:  6.419e-01  linmin:  4.173e-06  t[s]: 128004.44
	FillingsUpdate:  mu: +0.246537955  nElectrons: 338.000000
	SubspaceRotationAdjust: set factor to 0.121
ElecMinimize: Iter:  16  F: -1819.318807639207989  |grad|_K:  3.355e-08  alpha:  6.119e-01  linmin:  2.819e-05  t[s]: 128456.63
	FillingsUpdate:  mu: +0.246541732  nElectrons: 338.000000
	SubspaceRotationAdjust: set factor to 0.105
ElecMinimize: Iter:  17  F: -1819.318807666898465  |grad|_K:  3.233e-08  alpha:  4.627e-01  linmin: -2.293e-05  t[s]: 128908.16
	FillingsUpdate:  mu: +0.246544107  nElectrons: 338.000000
	SubspaceRotationAdjust: set factor to 0.0813
ElecMinimize: Iter:  18  F: -1819.318807687416438  |grad|_K:  2.379e-08  alpha:  3.671e-01  linmin:  4.842e-05  t[s]: 129364.45
	FillingsUpdate:  mu: +0.246545567  nElectrons: 338.000000
	SubspaceRotationAdjust: set factor to 0.0799
ElecMinimize: Iter:  19  F: -1819.318807701217111  |grad|_K:  1.516e-08  alpha:  4.529e-01  linmin: -1.185e-04  t[s]: 129815.43
	FillingsUpdate:  mu: +0.246546400  nElectrons: 338.000000
	SubspaceRotationAdjust: set factor to 0.0874
ElecMinimize: Iter:  20  F: -1819.318807707418273  |grad|_K:  9.616e-09  alpha:  5.070e-01  linmin: -7.163e-05  t[s]: 130263.36
	FillingsUpdate:  mu: +0.246546113  nElectrons: 338.000000
	SubspaceRotationAdjust: set factor to 0.0984
ElecMinimize: Iter:  21  F: -1819.318807709967814  |grad|_K:  6.489e-09  alpha:  5.053e-01  linmin:  1.966e-04  t[s]: 130709.93
ElecMinimize: Converged (|Delta F|<1.000000e-08 for 2 iters).
Setting wave functions to eigenvectors of Hamiltonian

# Ionic positions in lattice coordinates:
ion H   0.624644025367604   0.713432705656085   0.332972796566371 1
ion H   0.311928115392566   0.459688146749371   0.332826173438593 1
ion C   0.543164300833286   0.550048043932400   0.332233729860754 1
ion O   0.595955352668762   0.344454323018258   0.333284948112136 1
ion O   0.377529729087640   0.611998338023999   0.334338054685481 1
ion Pt   0.000000000000000   0.000000000000000  -0.166660000000000 0
ion Pt   0.000000000000000   0.500000000000000  -0.166660000000000 0
ion Pt   0.500000000000000   0.000000000000000  -0.166660000000000 0
ion Pt   0.500000000000000   0.500000000000000  -0.166660000000000 0
ion Pt   0.250000000000000   0.250000000000000  -0.083330000000000 0
ion Pt   0.250000000000000   0.750000000000000  -0.083330000000000 0
ion Pt   0.750000000000000   0.250000000000000  -0.083330000000000 0
ion Pt   0.750000000000000   0.750000000000000  -0.083330000000000 0
ion Pt  -0.000003523389279  -0.000029165891444  -0.001085085945377 1
ion Pt   0.000003274363109   0.500018236703107  -0.001072584931120 1
ion Pt   0.499971955557956  -0.000023715675441  -0.000907340456620 1
ion Pt   0.500012527523583   0.500027025737627  -0.000648989622918 1
ion Pt   0.249426390243994   0.249937448474381   0.089370249446888 1
ion Pt   0.249764526976805   0.749947865708111   0.089390315917434 1
ion Pt   0.750498763991614   0.249897176907895   0.089240354135558 1
ion Pt   0.750689925273531   0.750276617755324   0.089329762248170 1
ion Pt   0.000038995441523  -0.000037519714209   0.160463738137973 1
ion Pt   0.000023882312267   0.499967200678845   0.160381555864652 1
ion Pt   0.500035145017616   0.000529292436148   0.159917972907090 1
ion Pt   0.500667095720491   0.500211373107168   0.160343957800442 1


# Forces in Lattice coordinates:
force H   0.014684226702477   0.029996878811825  -0.016922407072720 1
force H  -0.036756790828021  -0.030562836727418  -0.004530301797524 1
force C  -0.023318638097210  -0.007070508806518   0.039142368352425 1
force O   0.021193807315933  -0.031350825203276  -0.024808837076161 1
force O   0.013209877648230   0.035437876242275   0.028615325207032 1
force Pt   0.000019554539334   0.000017378204980   0.637966839581885 0
force Pt   0.000135671502375   0.000078132920684   0.637501428419045 0
force Pt  -0.000039372913320  -0.000292688009607   0.659963491136283 0
force Pt   0.000042642988325   0.000206441482148   0.666040628994212 0
force Pt   0.002286976530416   0.000983828486878  -0.526076487530486 0
force Pt   0.002036338333528  -0.000975615887418  -0.530449967036844 0
force Pt  -0.002634946329580   0.000933610076487  -0.535804034932210 0
force Pt  -0.002177899963189  -0.000982596084391  -0.531679284218920 0
force Pt   0.001257918786150   0.000064818488643  -0.067057609514344 1
force Pt   0.001056853379386   0.000044458664606  -0.070786486143486 1
force Pt  -0.000098326610233   0.000027955101969  -0.072427658739624 1
force Pt   0.000056927978507   0.000245744696173  -0.071363855066853 1
force Pt   0.001146789533370   0.001448284665430  -0.022115094308110 1
force Pt   0.000413507891732  -0.000565010426886  -0.022168265109498 1
force Pt   0.002779439141560   0.000842750157948  -0.030345994559589 1
force Pt   0.001355608503823   0.000161574121592  -0.026427293410688 1
force Pt   0.001262452358218  -0.000172879391336  -0.019584289890294 1
force Pt  -0.000362453137714   0.000034058216644  -0.021224597324153 1
force Pt   0.001739513575086   0.000672548707827  -0.031380990925097 1
force Pt   0.000454693794202  -0.000117158317210  -0.032502762667499 1

# Energy components:
   Eewald =     2000.0836355526196257
       EH =     3687.1405298764893814
     Eloc =    -7828.5866691077717405
      Enl =      -15.7745008976319507
      Exc =     -575.5062012084741809
 Exc_core =      324.9916872089944491
       KE =      588.5845233617880012
-------------------------------------
     Etot =    -1819.0669952139865018
       TS =        0.2518124959812966
-------------------------------------
        F =    -1819.3188077099678139

IonicMinimize: Iter:   7  F: -1819.318807709967814  |grad|_K:  1.244e-03  alpha:  1.000e+00  linmin: -7.592e-02  t[s]: 130781.94

#--- Lowdin population analysis ---
# oxidation-state H +0.212 +0.426
# oxidation-state C +0.425
# oxidation-state O -0.322 -0.386
# oxidation-state Pt +0.071 +0.071 +0.071 +0.070 -0.049 -0.050 -0.049 -0.049 +0.004 +0.003 +0.004 +0.003 -0.049 -0.043 -0.041 -0.046 +0.065 +0.049 +0.054 -0.003


-------- Electronic minimization -----------
	FillingsUpdate:  mu: +0.249644920  nElectrons: 338.000000
ElecMinimize: Iter:   0  F: -1819.221517147498162  |grad|_K:  7.531e-05  alpha:  1.000e+00
	FillingsUpdate:  mu: +0.255297583  nElectrons: 338.000000
	SubspaceRotationAdjust: set factor to 0.0566
ElecMinimize: Iter:   1  F: -1819.296691681915718  |grad|_K:  3.282e-05  alpha:  2.482e-01  linmin: -1.813e-05  t[s]: 131581.01
	FillingsUpdate:  mu: +0.248239030  nElectrons: 338.000000
	SubspaceRotationAdjust: set factor to 0.0404
ElecMinimize: Iter:   2  F: -1819.311019343623911  |grad|_K:  1.071e-05  alpha:  2.492e-01  linmin:  1.380e-04  t[s]: 132030.40
	FillingsUpdate:  mu: +0.246948050  nElectrons: 338.000000
	SubspaceRotationAdjust: set factor to 0.0551
ElecMinimize: Iter:   3  F: -1819.313337193010966  |grad|_K:  4.853e-06  alpha:  3.787e-01  linmin:  2.982e-06  t[s]: 132482.04
	FillingsUpdate:  mu: +0.246748496  nElectrons: 338.000000
	SubspaceRotationAdjust: set factor to 0.0582
ElecMinimize: Iter:   4  F: -1819.313947593937883  |grad|_K:  3.757e-06  alpha:  4.854e-01  linmin:  3.891e-06  t[s]: 132936.65
	FillingsUpdate:  mu: +0.246980183  nElectrons: 338.000000
	SubspaceRotationAdjust: set factor to 0.0713
ElecMinimize: Iter:   5  F: -1819.314696244691731  |grad|_K:  4.406e-06  alpha:  9.929e-01  linmin: -1.733e-05  t[s]: 133391.13
	FillingsUpdate:  mu: +0.246465083  nElectrons: 338.000000
	SubspaceRotationAdjust: set factor to 0.0827
ElecMinimize: Iter:   6  F: -1819.315541554737138  |grad|_K:  5.163e-06  alpha:  8.146e-01  linmin:  2.191e-06  t[s]: 133838.89
	FillingsUpdate:  mu: +0.246338638  nElectrons: 338.000000
	SubspaceRotationAdjust: set factor to 0.0885
ElecMinimize: Iter:   7  F: -1819.316887022971741  |grad|_K:  6.188e-06  alpha:  9.456e-01  linmin: -2.318e-06  t[s]: 134290.59
	FillingsUpdate:  mu: +0.246764689  nElectrons: 338.000000
	SubspaceRotationAdjust: set factor to 0.0937
ElecMinimize: Iter:   8  F: -1819.318142390077355  |grad|_K:  4.534e-06  alpha:  6.138e-01  linmin: -1.148e-06  t[s]: 134743.70
	FillingsUpdate:  mu: +0.246509543  nElectrons: 338.000000
	SubspaceRotationAdjust: set factor to 0.0926
ElecMinimize: Iter:   9  F: -1819.318676838862302  |grad|_K:  2.925e-06  alpha:  4.866e-01  linmin:  3.517e-06  t[s]: 135198.20
	FillingsUpdate:  mu: +0.246525345  nElectrons: 338.000000
	SubspaceRotationAdjust: set factor to 0.0923
ElecMinimize: Iter:  10  F: -1819.318881761225384  |grad|_K:  1.774e-06  alpha:  4.487e-01  linmin: -3.703e-06  t[s]: 135652.04
	FillingsUpdate:  mu: +0.246686140  nElectrons: 338.000000
	SubspaceRotationAdjust: set factor to 0.0873
ElecMinimize: Iter:  11  F: -1819.318945553426829  |grad|_K:  1.103e-06  alpha:  3.796e-01  linmin:  2.020e-06  t[s]: 136102.86
	FillingsUpdate:  mu: +0.246770451  nElectrons: 338.000000
	SubspaceRotationAdjust: set factor to 0.0836
ElecMinimize: Iter:  12  F: -1819.318970721004007  |grad|_K:  6.954e-07  alpha:  3.873e-01  linmin:  1.691e-06  t[s]: 136555.38
	FillingsUpdate:  mu: +0.246756498  nElectrons: 338.000000
	SubspaceRotationAdjust: set factor to 0.096
ElecMinimize: Iter:  13  F: -1819.318982762383939  |grad|_K:  4.980e-07  alpha:  4.664e-01  linmin:  5.272e-06  t[s]: 137006.98
	FillingsUpdate:  mu: +0.246741598  nElectrons: 338.000000
	SubspaceRotationAdjust: set factor to 0.128
ElecMinimize: Iter:  14  F: -1819.318989753537380  |grad|_K:  4.104e-07  alpha:  5.279e-01  linmin: -1.519e-07  t[s]: 137459.20
	FillingsUpdate:  mu: +0.246734872  nElectrons: 338.000000
	SubspaceRotationAdjust: set factor to 0.159
ElecMinimize: Iter:  15  F: -1819.318995480499098  |grad|_K:  4.132e-07  alpha:  6.370e-01  linmin: -1.536e-07  t[s]: 137913.85
	FillingsUpdate:  mu: +0.246689138  nElectrons: 338.000000
	SubspaceRotationAdjust: set factor to 0.15
ElecMinimize: Iter:  16  F: -1819.319000634249278  |grad|_K:  4.876e-07  alpha:  5.655e-01  linmin:  6.328e-07  t[s]: 138361.41
	FillingsUpdate:  mu: +0.246642153  nElectrons: 338.000000
	SubspaceRotationAdjust: set factor to 0.116
ElecMinimize: Iter:  17  F: -1819.319004202196993  |grad|_K:  4.357e-07  alpha:  2.811e-01  linmin: -3.010e-07  t[s]: 138817.18
	FillingsUpdate:  mu: +0.246591446  nElectrons: 338.000000
	SubspaceRotationAdjust: set factor to 0.124
ElecMinimize: Iter:  18  F: -1819.319008061603881  |grad|_K:  2.958e-07  alpha:  3.807e-01  linmin:  9.861e-07  t[s]: 139269.24
	FillingsUpdate:  mu: +0.246584165  nElectrons: 338.000000
	SubspaceRotationAdjust: set factor to 0.145
ElecMinimize: Iter:  19  F: -1819.319010419357255  |grad|_K:  2.238e-07  alpha:  5.048e-01  linmin:  3.726e-07  t[s]: 139723.70
	FillingsUpdate:  mu: +0.246570225  nElectrons: 338.000000
	SubspaceRotationAdjust: set factor to 0.129
ElecMinimize: Iter:  20  F: -1819.319011586787610  |grad|_K:  2.033e-07  alpha:  4.366e-01  linmin: -6.948e-07  t[s]: 140179.48
	FillingsUpdate:  mu: +0.246565557  nElectrons: 338.000000
	SubspaceRotationAdjust: set factor to 0.113
ElecMinimize: Iter:  21  F: -1819.319012122231698  |grad|_K:  1.437e-07  alpha:  2.427e-01  linmin:  9.800e-07  t[s]: 140632.48
	FillingsUpdate:  mu: +0.246578623  nElectrons: 338.000000
	SubspaceRotationAdjust: set factor to 0.155
ElecMinimize: Iter:  22  F: -1819.319012612881352  |grad|_K:  1.065e-07  alpha:  4.452e-01  linmin:  7.027e-06  t[s]: 141087.02
	FillingsUpdate:  mu: +0.246599468  nElectrons: 338.000000
	SubspaceRotationAdjust: set factor to 0.189
ElecMinimize: Iter:  23  F: -1819.319012933073964  |grad|_K:  1.016e-07  alpha:  5.284e-01  linmin:  8.223e-08  t[s]: 141538.81
	FillingsUpdate:  mu: +0.246615492  nElectrons: 338.000000
	SubspaceRotationAdjust: set factor to 0.156
ElecMinimize: Iter:  24  F: -1819.319013105074873  |grad|_K:  1.067e-07  alpha:  3.120e-01  linmin:  5.060e-07  t[s]: 141991.16
	FillingsUpdate:  mu: +0.246632788  nElectrons: 338.000000
	SubspaceRotationAdjust: set factor to 0.131
ElecMinimize: Iter:  25  F: -1819.319013252138575  |grad|_K:  7.315e-08  alpha:  2.422e-01  linmin:  4.537e-06  t[s]: 142447.30
	FillingsUpdate:  mu: +0.246646545  nElectrons: 338.000000
	SubspaceRotationAdjust: set factor to 0.153
ElecMinimize: Iter:  26  F: -1819.319013382158573  |grad|_K:  5.174e-08  alpha:  4.557e-01  linmin:  1.387e-05  t[s]: 142903.26
	FillingsUpdate:  mu: +0.246654208  nElectrons: 338.000000
	SubspaceRotationAdjust: set factor to 0.18
ElecMinimize: Iter:  27  F: -1819.319013447234965  |grad|_K:  3.860e-08  alpha:  4.560e-01  linmin: -2.448e-05  t[s]: 143359.26
	FillingsUpdate:  mu: +0.246658686  nElectrons: 338.000000
	SubspaceRotationAdjust: set factor to 0.144
ElecMinimize: Iter:  28  F: -1819.319013477528870  |grad|_K:  4.118e-08  alpha:  3.797e-01  linmin:  9.203e-05  t[s]: 143812.32
	FillingsUpdate:  mu: +0.246659558  nElectrons: 338.000000
	SubspaceRotationAdjust: set factor to 0.131
ElecMinimize: Iter:  29  F: -1819.319013497792184  |grad|_K:  2.944e-08  alpha:  2.254e-01  linmin: -1.520e-05  t[s]: 144267.59
	FillingsUpdate:  mu: +0.246656573  nElectrons: 338.000000
	SubspaceRotationAdjust: set factor to 0.182
ElecMinimize: Iter:  30  F: -1819.319013518069823  |grad|_K:  2.284e-08  alpha:  4.436e-01  linmin:  1.677e-04  t[s]: 144722.02
	FillingsUpdate:  mu: +0.246654200  nElectrons: 338.000000
	SubspaceRotationAdjust: set factor to 0.196
ElecMinimize: Iter:  31  F: -1819.319013531507380  |grad|_K:  2.359e-08  alpha:  4.907e-01  linmin:  7.835e-05  t[s]: 145175.63
	FillingsUpdate:  mu: +0.246651877  nElectrons: 338.000000
	SubspaceRotationAdjust: set factor to 0.163
ElecMinimize: Iter:  32  F: -1819.319013538917943  |grad|_K:  2.397e-08  alpha:  2.514e-01  linmin: -1.017e-05  t[s]: 145631.46
	FillingsUpdate:  mu: +0.246647879  nElectrons: 338.000000
	SubspaceRotationAdjust: set factor to 0.154
ElecMinimize: Iter:  33  F: -1819.319013547755276  |grad|_K:  1.578e-08  alpha:  2.864e-01  linmin: -9.263e-05  t[s]: 146079.09
ElecMinimize: Converged (|Delta F|<1.000000e-08 for 2 iters).
Setting wave functions to eigenvectors of Hamiltonian

# Ionic positions in lattice coordinates:
ion H   0.624775874619392   0.714692085237847   0.332807374859600 1
ion H   0.311093787459771   0.459633867649926   0.332799707736588 1
ion C   0.543367706251695   0.549687107407806   0.332576619746167 1
ion O   0.595974624251470   0.343807629871850   0.333056989294241 1
ion O   0.377545309524945   0.611504156952685   0.334601000527436 1
ion Pt   0.000000000000000   0.000000000000000  -0.166660000000000 0
ion Pt   0.000000000000000   0.500000000000000  -0.166660000000000 0
ion Pt   0.500000000000000   0.000000000000000  -0.166660000000000 0
ion Pt   0.500000000000000   0.500000000000000  -0.166660000000000 0
ion Pt   0.250000000000000   0.250000000000000  -0.083330000000000 0
ion Pt   0.250000000000000   0.750000000000000  -0.083330000000000 0
ion Pt   0.750000000000000   0.250000000000000  -0.083330000000000 0
ion Pt   0.750000000000000   0.750000000000000  -0.083330000000000 0
ion Pt   0.000043799303839  -0.000025565422518  -0.001715345593432 1
ion Pt   0.000043582687014   0.500022583839629  -0.001733089987621 1
ion Pt   0.499967306604993  -0.000022557621852  -0.001575173349933 1
ion Pt   0.500014062961891   0.500047226625933  -0.001303325831260 1
ion Pt   0.249453457888907   0.250052941535320   0.089370445560529 1
ion Pt   0.249772026576061   0.749896284106483   0.089389016795848 1
ion Pt   0.750626457577800   0.249961219841558   0.089163564054509 1
ion Pt   0.750769114669520   0.750294990346909   0.089290527573356 1
ion Pt   0.000086732454721  -0.000053418421902   0.160094491945543 1
ion Pt   0.000009480624312   0.499969511647073   0.159994715804685 1
ion Pt   0.500103569149595   0.000600252669971   0.159434064546282 1
ion Pt   0.500713366438374   0.500209422622964   0.159878364932522 1


# Forces in Lattice coordinates:
force H  -0.015311670859919  -0.009232259422532   0.003848096762655 1
force H  -0.014272008718670  -0.019648284234040  -0.002530289668274 1
force C  -0.016655388807727   0.001397991281459  -0.010100949893213 1
force O   0.021024077760240  -0.005601349897399  -0.006533101572964 1
force O   0.014836630749382   0.029862713247120   0.039154606614910 1
force Pt  -0.000052202941230   0.000007977852141   0.613164882971882 0
force Pt   0.000048505107303   0.000077285585274   0.611877105308716 0
force Pt   0.000007134406793  -0.000274211063203   0.635261833768288 0
force Pt   0.000069550779701   0.000182989390888   0.642150798315274 0
force Pt   0.002375891862071   0.000932195491264  -0.542211874408811 0
force Pt   0.002014103282873  -0.000873119273051  -0.546503529324258 0
force Pt  -0.002256417006058   0.000875785992966  -0.552680787833790 0
force Pt  -0.001704775205405  -0.000879352173611  -0.548019863063871 0
force Pt   0.001244917412107   0.000038188070048  -0.006435870749693 1
force Pt   0.000902641920922   0.000164567341954  -0.008321519272834 1
force Pt   0.000036311525319   0.000138050688779  -0.012671583963666 1
force Pt   0.000272351386154   0.000164828597356  -0.013062090786276 1
force Pt  -0.000100730639755  -0.000054317528958  -0.039851155995086 1
force Pt   0.000168803679212   0.000699879425623  -0.039483761668908 1
force Pt   0.001688389852637   0.000063341795941  -0.045309686367382 1
force Pt   0.000996737858443   0.000514083806698  -0.043116862355107 1
force Pt   0.001162145409759   0.000189374745001  -0.023052826922020 1
force Pt   0.000329938055565   0.000104058021794  -0.022895483466088 1
force Pt   0.001974870195671   0.000226837242684  -0.029525685002719 1
force Pt   0.000896475817417  -0.000075568020376  -0.034194729409569 1

# Energy components:
   Eewald =     2003.9121831324564482
       EH =     3690.9570983404378239
     Eloc =    -7836.2325999228014553
      Enl =      -15.7690442120163254
      Exc =     -575.5119287821380567
 Exc_core =      324.9916882312191433
       KE =      588.5850949299400554
-------------------------------------
     Etot =    -1819.0675082829020539
       TS =        0.2515052648531344
-------------------------------------
        F =    -1819.3190135477552758

IonicMinimize: Iter:   8  F: -1819.319013547755276  |grad|_K:  7.855e-04  alpha:  1.000e+00  linmin: -2.443e-02  t[s]: 146152.28
IonicMinimize: None of the convergence criteria satisfied after 8 iterations.

#--- Lowdin population analysis ---
# oxidation-state H +0.210 +0.426
# oxidation-state C +0.427
# oxidation-state O -0.322 -0.387
# oxidation-state Pt +0.070 +0.070 +0.071 +0.070 -0.049 -0.049 -0.049 -0.049 +0.004 +0.003 +0.004 +0.003 -0.049 -0.043 -0.041 -0.046 +0.065 +0.049 +0.054 -0.001


Dumping '100_4-Vacuum.fillings' ... done
Dumping '100_4-Vacuum.wfns' ... done
Dumping '100_4-Vacuum.ionpos' ... done
Dumping '100_4-Vacuum.n' ... done
Dumping '100_4-Vacuum.eigenvals' ... done
Dumping '100_4-Vacuum.eigStats' ... 
	eMin: -1.702406 at state 0 ( [ +0.000000 +0.000000 +0.000000 ] spin 0 )
	HOMO: +0.246600 at state 4 ( [ +0.250000 +0.250000 +0.000000 ] spin 0 )
	mu  : +0.246648
	LUMO: +0.247012 at state 2 ( [ +0.000000 +0.500000 +0.000000 ] spin 0 )
	eMax: +0.775112 at state 9 ( [ +0.500000 +0.500000 +0.000000 ] spin 0 )
	HOMO-LUMO gap: +0.000412
	Optical gap  : +0.001020 at state 6 ( [ +0.250000 -0.250000 +0.000000 ] spin 0 )
Dumping '100_4-Vacuum.Ecomponents' ... done
End date and time: Sat Jun  1 06:33:23 2019  (Duration: 1-16:37:05.91)
Done!
