--------------------------------------------------------------------------
Initialization of PSM library failed.

  Error: PSM is in the finalized state
--------------------------------------------------------------------------
--------------------------------------------------------------------------
The OpenFabrics (openib) BTL failed to initialize while trying to
allocate some locked memory.  This typically can indicate that the
memlock limits are set too low.  For most HPC installations, the
memlock limits should be set to "unlimited".  The failure occured
here:

  Local host:    node2015
  OMPI source:   btl_openib.c:753
  Function:      ompi_free_list_init_ex_new()
  Device:        qib0
  Memlock limit: 65536

You may need to consult with your system administrator to get this
problem fixed.  This FAQ entry on the Open MPI web site may also be
helpful:

    http://www.open-mpi.org/faq/?category=openfabrics#ib-locked-pages
--------------------------------------------------------------------------

*************** JDFTx 1.4.2 (git hash 74b6e54) ***************

Start date and time: Sat Jun  1 09:50:11 2019
Executable /home/jfm343/JDFTXDIR/build/jdftx with command-line: -i Solvated.in
Running on hosts (process indices):  node2015.physics.cornell.edu (0)
Divided in process groups (process indices):  0 (0)
Resource initialization completed at t[s]:      0.00
Run totals: 1 processes, 12 threads, 0 GPUs


Input parsed successfully to the following command list (including defaults):

basis kpoint-dependent
coords-type Lattice
core-overlap-check vector
coulomb-interaction Periodic
davidson-band-ratio 1.1
dump End IonicPositions ElecDensity EigStats Ecomponents
dump-name 100_1-Solvated.$VAR
elec-cutoff 20 100
elec-eigen-algo Davidson
elec-ex-corr gga-PBEsol
elec-smearing Fermi 0.01
electronic-minimize  \
	dirUpdateScheme      FletcherReeves \
	linminMethod         DirUpdateRecommended \
	nIterations          200 \
	history              15 \
	knormThreshold       0 \
	energyDiffThreshold  1e-08 \
	nEnergyDiff          2 \
	alphaTstart          1 \
	alphaTmin            1e-10 \
	updateTestStepSize   yes \
	alphaTreduceFactor   0.1 \
	alphaTincreaseFactor 3 \
	nAlphaAdjustMax      3 \
	wolfeEnergy          0.0001 \
	wolfeGradient        0.9 \
	fdTest               no
exchange-regularization WignerSeitzTruncated
fluid NonlinearPCM 298.000000 1.013250
fluid-anion ClO4- 0.2 MeanFieldLJ \
	epsBulk 1 \
	pMol 0 \
	epsInf 1 \
	Pvap 0 \
	sigmaBulk 0 \
	Rvdw 4.55424 \
	Res 0 \
	tauNuc 343133 \
	omegaEl 0.55124 \
	gammaEl 0.257245
fluid-cation Na+ 0.2 MeanFieldLJ \
	epsBulk 1 \
	pMol 0 \
	epsInf 1 \
	Pvap 0 \
	sigmaBulk 0 \
	Rvdw 2.19208 \
	Res 0 \
	tauNuc 343133 \
	omegaEl 0.55124 \
	gammaEl 0.257245
fluid-ex-corr lda-TF lda-PZ
fluid-gummel-loop 10 1.000000e-05
fluid-minimize  \
	dirUpdateScheme      PolakRibiere \
	linminMethod         DirUpdateRecommended \
	nIterations          100 \
	history              15 \
	knormThreshold       1e-11 \
	energyDiffThreshold  0 \
	nEnergyDiff          2 \
	alphaTstart          1 \
	alphaTmin            1e-10 \
	updateTestStepSize   yes \
	alphaTreduceFactor   0.1 \
	alphaTincreaseFactor 3 \
	nAlphaAdjustMax      6 \
	wolfeEnergy          0.0001 \
	wolfeGradient        0.9 \
	fdTest               no
fluid-solvent H2O 55.338 ScalarEOS \
	epsBulk 78.4 \
	pMol 0.92466 \
	epsInf 1.77 \
	Pvap 1.06736e-10 \
	sigmaBulk 4.62e-05 \
	Rvdw 2.61727 \
	Res 1.42 \
	tauNuc 343133 \
	omegaEl 0.55124 \
	gammaEl 0.257245
forces-output-coords Positions
initial-state 100_1-Vacuum.$VAR
ion O   0.664652204969683   0.487580635726202   0.321055906093444 1
ion O   0.434958184150971   0.717663259444481   0.321180825832366 1
ion C   0.500818850140035   0.502424327802908   0.293180741369169 1
ion H   0.420379530432955   0.344223174679073   0.309963423915369 1
ion H   0.712134318130363   0.331523806899166   0.302023140520809 1
ion H   0.315980607779458   0.726457729460400   0.302158820589721 1
ion Pt   0.000000000000000   0.000000000000000  -0.166660000000000 0
ion Pt   0.000000000000000   0.500000000000000  -0.166660000000000 0
ion Pt   0.500000000000000   0.000000000000000  -0.166660000000000 0
ion Pt   0.500000000000000   0.500000000000000  -0.166660000000000 0
ion Pt   0.250000000000000   0.250000000000000  -0.083330000000000 0
ion Pt   0.250000000000000   0.750000000000000  -0.083330000000000 0
ion Pt   0.750000000000000   0.250000000000000  -0.083330000000000 0
ion Pt   0.750000000000000   0.750000000000000  -0.083330000000000 0
ion Pt   0.000208115203560  -0.000059655512673  -0.001848442935255 1
ion Pt  -0.000019173511942   0.499944467210467  -0.002130892164151 1
ion Pt   0.499894449517008   0.000429466092828  -0.001868388328587 1
ion Pt   0.499990546001967   0.500315366123271   0.001840045248813 1
ion Pt   0.251601844020013   0.251054448829702   0.089629307512041 1
ion Pt   0.251980048686645   0.747552103147812   0.089677853322057 1
ion Pt   0.748787756081556   0.251276066772235   0.089514594215786 1
ion Pt   0.748489305589917   0.747245310379952   0.089263155292726 1
ion Pt  -0.000059739501049  -0.000342814304331   0.159738404707883 1
ion Pt   0.000142762601545   0.500099771075133   0.159670121669923 1
ion Pt   0.500734599619713  -0.002545120116919   0.159889286266229 1
ion Pt   0.499898032562493   0.496188126549766   0.168807560669186 1
ion-species GBRV/$ID_pbesol.uspp
ion-width Ecut
ionic-minimize  \
	dirUpdateScheme      L-BFGS \
	linminMethod         DirUpdateRecommended \
	nIterations          0 \
	history              15 \
	knormThreshold       0.0001 \
	energyDiffThreshold  1e-06 \
	nEnergyDiff          2 \
	alphaTstart          1 \
	alphaTmin            1e-10 \
	updateTestStepSize   yes \
	alphaTreduceFactor   0.1 \
	alphaTincreaseFactor 3 \
	nAlphaAdjustMax      3 \
	wolfeEnergy          0.0001 \
	wolfeGradient        0.9 \
	fdTest               no
kpoint   0.000000000000   0.000000000000   0.000000000000  1.00000000000000
kpoint-folding 4 4 1 
latt-move-scale 1 1 1
latt-scale 1 1 1 
lattice Triclinic 14.8268 10.4842 31.4527 90 90 90
lattice-minimize  \
	dirUpdateScheme      L-BFGS \
	linminMethod         DirUpdateRecommended \
	nIterations          0 \
	history              15 \
	knormThreshold       0 \
	energyDiffThreshold  1e-06 \
	nEnergyDiff          2 \
	alphaTstart          1 \
	alphaTmin            1e-10 \
	updateTestStepSize   yes \
	alphaTreduceFactor   0.1 \
	alphaTincreaseFactor 3 \
	nAlphaAdjustMax      3 \
	wolfeEnergy          0.0001 \
	wolfeGradient        0.9 \
	fdTest               no
lcao-params -1 1e-06 0.01
pcm-variant GLSSA13
spintype no-spin
subspace-rotation-factor 1 yes
symmetries automatic
symmetry-threshold 0.0001



---------- Setting up symmetries ----------

Found 8 point-group symmetries of the bravais lattice
Found 1 space-group symmetries with basis
Applied RMS atom displacement 0 bohrs to make symmetries exact.

---------- Initializing the Grid ----------
R = 
[    14.8268          0          0  ]
[          0    10.4842 4.39162e-06  ]
[          0          0    31.4527  ]
unit cell volume = 4889.24
G =
[   0.423772          0          0  ]
[          0   0.599299 -8.3678e-08  ]
[          0          0   0.199766  ]
Minimum fftbox size, Smin = [  68  48  144  ]
Chosen fftbox size, S = [  70  48  144  ]

---------- Initializing tighter grid for wavefunction operations ----------
R = 
[    14.8268          0          0  ]
[          0    10.4842 4.39162e-06  ]
[          0          0    31.4527  ]
unit cell volume = 4889.24
G =
[   0.423772          0          0  ]
[          0   0.599299 -8.3678e-08  ]
[          0          0   0.199766  ]
Minimum fftbox size, Smin = [  60  44  128  ]
Chosen fftbox size, S = [  60  48  128  ]

---------- Exchange Correlation functional ----------
Initalized PBEsol GGA exchange.
Initalized PBEsol GGA correlation.

---------- Setting up pseudopotentials ----------
Width of ionic core gaussian charges (only for fluid interactions / plotting) set to 0.397384

Reading pseudopotential file '/home/jfm343/JDFTXDIR/build/pseudopotentials/GBRV/o_pbesol.uspp':
  Title: O.  Created by USPP 7.3.6 on 3-2-2014
  Reference state energy: -15.849885.  6 valence electrons in orbitals:
    |200>  occupation: 2  eigenvalue: -0.873214
    |210>  occupation: 4  eigenvalue: -0.330058
  lMax: 2  lLocal: 2  QijEcut: 6
  5 projectors sampled on a log grid with 511 points:
    l: 0  eig: -0.873214  rCut: 1.25
    l: 0  eig: 0.000000  rCut: 1.25
    l: 1  eig: -0.330058  rCut: 1.25
    l: 1  eig: 0.000000  rCut: 1.25
    l: 2  eig: 1.000000  rCut: 1.25
  Partial core density with radius 0.7
  Transforming core density to a uniform radial grid of dG=0.02 with 1264 points.
  Transforming local potential to a uniform radial grid of dG=0.02 with 1264 points.
  Transforming nonlocal projectors to a uniform radial grid of dG=0.02 with 432 points.
  Transforming density augmentations to a uniform radial grid of dG=0.02 with 1264 points.
  Transforming atomic orbitals to a uniform radial grid of dG=0.02 with 432 points.
  Core radius for overlap checks: 1.25 bohrs.

Reading pseudopotential file '/home/jfm343/JDFTXDIR/build/pseudopotentials/GBRV/c_pbesol.uspp':
  Title: C.  Created by USPP 7.3.6 on 3-2-2014
  Reference state energy: -5.383511.  4 valence electrons in orbitals:
    |200>  occupation: 2  eigenvalue: -0.501126
    |210>  occupation: 2  eigenvalue: -0.192448
  lMax: 1  lLocal: 2  QijEcut: 5
  4 projectors sampled on a log grid with 503 points:
    l: 0  eig: -0.501126  rCut: 1.3
    l: 0  eig: 0.000000  rCut: 1.3
    l: 1  eig: -0.192448  rCut: 1.3
    l: 1  eig: 0.000000  rCut: 1.3
  Partial core density with radius 1.1
  Transforming core density to a uniform radial grid of dG=0.02 with 1264 points.
  Transforming local potential to a uniform radial grid of dG=0.02 with 1264 points.
  Transforming nonlocal projectors to a uniform radial grid of dG=0.02 with 432 points.
  Transforming density augmentations to a uniform radial grid of dG=0.02 with 1264 points.
  Transforming atomic orbitals to a uniform radial grid of dG=0.02 with 432 points.
  Core radius for overlap checks: 1.30 bohrs.

Reading pseudopotential file '/home/jfm343/JDFTXDIR/build/pseudopotentials/GBRV/h_pbesol.uspp':
  Title: H.  Created by USPP 7.3.6 on 22-9-15
  Reference state energy: -0.449841.  1 valence electrons in orbitals:
    |100>  occupation: 1  eigenvalue: -0.232690
  lMax: 0  lLocal: 1  QijEcut: 6
  2 projectors sampled on a log grid with 395 points:
    l: 0  eig: -0.232690  rCut: 1.2
    l: 0  eig: 1.000000  rCut: 1.2
  Transforming local potential to a uniform radial grid of dG=0.02 with 1264 points.
  Transforming nonlocal projectors to a uniform radial grid of dG=0.02 with 432 points.
  Transforming density augmentations to a uniform radial grid of dG=0.02 with 1264 points.
  Transforming atomic orbitals to a uniform radial grid of dG=0.02 with 432 points.
  Core radius for overlap checks: 1.20 bohrs.

Reading pseudopotential file '/home/jfm343/JDFTXDIR/build/pseudopotentials/GBRV/pt_pbesol.uspp':
  Title: Pt.  Created by USPP 7.3.6 on 22-9-15
  Reference state energy: -104.899005.  16 valence electrons in orbitals:
    |510>  occupation: 6  eigenvalue: -2.158847
    |520>  occupation: 9.5  eigenvalue: -0.336311
    |600>  occupation: 0  eigenvalue: -0.320324
    |610>  occupation: 0  eigenvalue: -0.119800
  lMax: 2  lLocal: 3  QijEcut: 5.5
  6 projectors sampled on a log grid with 745 points:
    l: 0  eig: -0.320324  rCut: 2.45
    l: 0  eig: 1.500000  rCut: 2.45
    l: 1  eig: -2.158847  rCut: 1.6
    l: 1  eig: -0.119800  rCut: 1.6
    l: 2  eig: -0.500000  rCut: 1.6
    l: 2  eig: -0.336311  rCut: 1.6
  Partial core density with radius 1.1
  Transforming core density to a uniform radial grid of dG=0.02 with 1264 points.
  Transforming local potential to a uniform radial grid of dG=0.02 with 1264 points.
  Transforming nonlocal projectors to a uniform radial grid of dG=0.02 with 432 points.
  Transforming density augmentations to a uniform radial grid of dG=0.02 with 1264 points.
  Transforming atomic orbitals to a uniform radial grid of dG=0.02 with 432 points.
  Core radius for overlap checks: 2.45 bohrs.

Initialized 4 species with 26 total atoms.

Folded 1 k-points by 4x4x1 to 16 k-points.

---------- Setting up k-points, bands, fillings ----------
Adding inversion symmetry to k-mesh for non-inversion-symmetric unit cell.
Reduced to 10 k-points under symmetry. 
Computing the number of bands and number of electrons
Reading initial fillings from file 100_1-Vacuum.fillings.
nElectrons: 339.000000   nBands: 255   nStates: 10

----- Setting up reduced wavefunction bases (one per k-point) -----
average nbasis = 20892.312 , ideal nbasis = 20887.217

---------- Setting up ewald sum ----------
Optimum gaussian width for ewald sums = 3.933946 bohr.
Real space sum over 693 unit cells with max indices [  4  5  3  ]
Reciprocal space sum over 5655 terms with max indices [  7  6  14  ]

---------- Allocating electronic variables ----------
Initializing wave functions:  reading from '100_1-Vacuum.wfns'
----- createFluidSolver() ----- (Fluid-side solver setup)
   Initializing fluid molecule 'H2O'
     Initializing site 'O'
       Electron density: proportional to exp(-r/0.36935)*erfc((r-0.51523)/0.36823) with norm 6.826
       Charge density: gaussian nuclear width 0.478731 with net site charge 0.826
       Polarizability: cuspless exponential with width 0.32 and norm 3.73
       Hard sphere radius: 2.57003 bohrs
       Positions in reference frame:
         [ +0.000000 +0.000000 +0.000000 ]
     Initializing site 'H'
       Electron density: proportional to exp(-r/0.34641)*erfc((r-0)/0.390882) with norm 0.587
       Charge density: gaussian nuclear width 0.377945 with net site charge -0.413
       Polarizability: cuspless exponential with width 0.39 and norm 3.3
       Positions in reference frame:
         [ +0.000000 -1.441945 +1.122523 ]
         [ +0.000000 +1.441945 +1.122523 ]
     Net charge: 0   dipole magnitude: 0.927204
     Initializing spherical shell mfKernel with radius 2.61727 Bohr
     deltaS corrections:
       site 'O': -7.54299
       site 'H': -6.83917
   Initializing fluid molecule 'Na+'
     Initializing site 'Na'
       Electron density: proportional to exp(-r/0.19682)*erfc((r-0.71491)/0.41314) with norm 8.1383
       Charge density: gaussian nuclear width 0.365347 with net site charge -1
       Hard sphere radius: 1.86327 bohrs
       Positions in reference frame:
         [ +0.000000 +0.000000 +0.000000 ]
     Net charge: -1   dipole magnitude: 0
     Initializing gaussian mfKernel with width: 1.55004 Bohr
     deltaS corrections:
       site 'Na': -22.3555
   Initializing fluid molecule 'ClO4-'
     Initializing site 'Cl'
       Electron density: proportional to exp(-r/0.48793)*erfc((r-0.93371)/0.45657) with norm 6.2308
       Charge density: gaussian nuclear width 0.55117 with net site charge -0.7692
       Hard sphere radius: 4.42196 bohrs
       Positions in reference frame:
         [ +0.000000 +0.000000 +0.000000 ]
     Initializing site 'O'
       Electron density: proportional to exp(-r/0.36013)*erfc((r-0.51636)/0.37371) with norm 6.4423
       Charge density: gaussian nuclear width 0.478731 with net site charge 0.4423
       Positions in reference frame:
         [ +1.705286 +1.705286 +1.705286 ]
         [ +1.705286 -1.705286 -1.705286 ]
         [ -1.705286 +1.705286 -1.705286 ]
         [ -1.705286 -1.705286 +1.705286 ]
     Net charge: 1   dipole magnitude: 0
     Initializing gaussian mfKernel with width: 3.22033 Bohr
     deltaS corrections:
       site 'Cl': -87.0374
       site 'O': 12.0842

Correction to mu due to finite nuclear width = -0.0687951
   Cavity determined by nc: 0.001 and sigma: 0.6
   Effective cavity tension: 9.5e-06 Eh/bohr^2 to account for cavitation and dispersion.
   Nonlinear dielectric with epsBulk = 78.4 and epsInf = 1.77 with density Nmol = 0.0049383 of dipoles pMol = 0.92466 at T = 298 K.
   Nonlinear ions with screening length = 12.843 bohrs and Z = 1 at T = 298 K.


---- Citations for features of the code used in this run ----

   Software package:
      R. Sundararaman, K. Letchworth-Weaver, K.A. Schwarz, D. Gunceler, Y. Ozhabes and T.A. Arias, 'JDFTx: software for joint density-functional theory', SoftwareX 6, 278 (2017)

   gga-PBEsol exchange-correlation functional:
      J.P. Perdew et al., Phys. Rev. Lett. 100, 136406 (2008)

   Pseudopotentials:
      KF Garrity, JW Bennett, KM Rabe and D Vanderbilt, Comput. Mater. Sci. 81, 446 (2014)

   Linear/nonlinear dielectric/ionic fluid model with effective cavity tension:
      D. Gunceler, K. Letchworth-Weaver, R. Sundararaman, K.A. Schwarz and T.A. Arias, Modelling Simul. Mater. Sci. Eng. 21, 074005 (2013)

   Total energy minimization with Auxiliary Hamiltonian:
      C. Freysoldt, S. Boeck, and J. Neugebauer, Phys. Rev. B 79, 241103(R) (2009)

This list may not be complete. Please suggest additional citations or
report any other bugs at https://github.com/shankar1729/jdftx/issues

Initialization completed successfully at t[s]:    104.83

Initializing state of NonlinearPCM using a similar LinearPCM: 	Linear fluid (dielectric constant: 78.4, screening length: 12.843 Bohr) occupying 0.374804 of unit cell:	Completed after 43 iterations at t[s]:    115.77

-------- Electron <-> Fluid self-consistency loop -----------

---------------------- Fluid Minimization # 1 -----------------------
FluidMinimize: Iter:   0  F: -0.004517377688061  |grad|_K:  4.575e-05  alpha:  1.000e+00
FluidMinimize: Iter:   1  F: -0.005250499100954  |grad|_K:  3.091e-05  alpha:  4.289e-01  linmin:  3.414e-02  cgtest: -9.841e-02  t[s]:    117.82
FluidMinimize: Iter:   2  F: -0.005453173331363  |grad|_K:  2.040e-05  alpha:  2.597e-01  linmin:  2.634e-03  cgtest: -4.616e-02  t[s]:    118.15
FluidMinimize: Iter:   3  F: -0.005623269713153  |grad|_K:  1.547e-05  alpha:  4.216e-01  linmin: -1.305e-02  cgtest: -7.882e-02  t[s]:    118.51
FluidMinimize: Iter:   4  F: -0.005737059340959  |grad|_K:  1.388e-05  alpha:  4.755e-01  linmin: -6.316e-03  cgtest: -1.360e-01  t[s]:    118.84
FluidMinimize: Iter:   5  F: -0.005849444068038  |grad|_K:  1.556e-05  alpha:  5.875e-01  linmin: -1.231e-02  cgtest: -6.254e-02  t[s]:    119.18
FluidMinimize: Iter:   6  F: -0.005948536137577  |grad|_K:  1.489e-05  alpha:  2.413e-01  linmin: -1.062e-01  cgtest:  5.435e-01  t[s]:    119.51
FluidMinimize: 	Predicted alpha/alphaT>3.000000, increasing alphaT to 7.239558e-01.
FluidMinimize: Iter:   7  F: -0.005952526897741  |grad|_K:  1.495e-05  alpha:  7.200e-03  linmin: -2.702e-01  cgtest:  9.995e-01  t[s]:    119.97
FluidMinimize: 	Predicted alpha/alphaT>3.000000, increasing alphaT to 2.159852e-02.
FluidMinimize: 	Predicted alpha/alphaT>3.000000, increasing alphaT to 6.479555e-02.
FluidMinimize: 	Wrong curvature in test step, increasing alphaT to 1.943867e-01.
FluidMinimize: Iter:   8  F: -0.005980799257827  |grad|_K:  1.567e-05  alpha: -1.326e+01  linmin: -3.770e-01  cgtest:  9.626e-01  t[s]:    120.59
FluidMinimize: Iter:   9  F: -0.005980850690411  |grad|_K:  1.567e-05  alpha:  1.000e-04  linmin: -3.210e-01  cgtest:  1.000e+00  t[s]:    120.92
FluidMinimize: 	Wrong curvature in test step, increasing alphaT to 3.000825e-04.
FluidMinimize: Iter:  10  F: -0.005980898242920  |grad|_K:  1.567e-05  alpha: -4.027e-01  linmin: -3.154e-01  cgtest:  1.000e+00  t[s]:    121.24
FluidMinimize: Converged (|Delta F|<1.000000e-05 for 2 iters).

Fluid minimization # 1 changed total free energy by -1.463521e-03 at t[s]:    121.41

-------------------- Electronic Minimization # 1 ---------------------
	FillingsUpdate:  mu: -0.179643021  nElectrons: 339.000000
ElecMinimize: Iter:   0  F: -1819.929007954116059  |grad|_K:  1.369e-05  alpha:  1.000e+00
	FillingsUpdate:  mu: -0.178729032  nElectrons: 339.000000
	SubspaceRotationAdjust: set factor to 0.638
ElecMinimize: Iter:   1  F: -1819.929249116894653  |grad|_K:  7.619e-06  alpha:  2.426e-02  linmin:  7.301e-06  t[s]:    773.95
ElecMinimize: 	Predicted alpha/alphaT>3.000000, increasing alphaT to 7.276703e-02.
ElecMinimize: 	Predicted alpha/alphaT>3.000000, increasing alphaT to 2.183011e-01.
	FillingsUpdate:  mu: -0.172884215  nElectrons: 339.000000
	SubspaceRotationAdjust: set factor to 0.457
ElecMinimize: Iter:   2  F: -1819.930222651866643  |grad|_K:  5.504e-06  alpha:  3.139e-01  linmin: -3.466e-06  t[s]:   1444.79
	FillingsUpdate:  mu: -0.175125460  nElectrons: 339.000000
	SubspaceRotationAdjust: set factor to 0.294
ElecMinimize: Iter:   3  F: -1819.930498578685501  |grad|_K:  4.858e-06  alpha:  1.668e-01  linmin: -8.272e-08  t[s]:   1896.76
	FillingsUpdate:  mu: -0.175941070  nElectrons: 339.000000
	SubspaceRotationAdjust: set factor to 0.213
ElecMinimize: Iter:   4  F: -1819.930600191845997  |grad|_K:  3.142e-06  alpha:  8.036e-02  linmin:  5.805e-08  t[s]:   2349.79
	FillingsUpdate:  mu: -0.174454618  nElectrons: 339.000000
	SubspaceRotationAdjust: set factor to 0.241
ElecMinimize: Iter:   5  F: -1819.930724392568436  |grad|_K:  1.651e-06  alpha:  2.343e-01  linmin: -6.564e-07  t[s]:   2808.11
	FillingsUpdate:  mu: -0.174061440  nElectrons: 339.000000
	SubspaceRotationAdjust: set factor to 0.159
ElecMinimize: Iter:   6  F: -1819.930759050609367  |grad|_K:  1.787e-06  alpha:  2.364e-01  linmin: -5.489e-08  t[s]:   3260.04
	FillingsUpdate:  mu: -0.174288603  nElectrons: 339.000000
	SubspaceRotationAdjust: set factor to 0.172
ElecMinimize: Iter:   7  F: -1819.930785336960980  |grad|_K:  8.108e-07  alpha:  1.537e-01  linmin:  4.689e-09  t[s]:   3719.16
	FillingsUpdate:  mu: -0.174350120  nElectrons: 339.000000
	SubspaceRotationAdjust: set factor to 0.139
ElecMinimize: Iter:   8  F: -1819.930799137625627  |grad|_K:  7.238e-07  alpha:  3.915e-01  linmin: -1.223e-07  t[s]:   4178.81
	FillingsUpdate:  mu: -0.174162273  nElectrons: 339.000000
	SubspaceRotationAdjust: set factor to 0.11
	SubspaceRotationAdjust: resetting CG because factor has changed by 0.109652
ElecMinimize: 	State modified externally: resetting search direction.
ElecMinimize: Iter:   9  F: -1819.930804326138059  |grad|_K:  5.123e-07  alpha:  1.847e-01
	FillingsUpdate:  mu: -0.174179379  nElectrons: 339.000000
	SubspaceRotationAdjust: set factor to 0.0814
ElecMinimize: Iter:  10  F: -1819.930808129146726  |grad|_K:  3.099e-07  alpha:  2.703e-01  linmin:  4.994e-08  t[s]:   5265.24
ElecMinimize: Converged (|Delta F|<1.000000e-05 for 2 iters).
Setting wave functions to eigenvectors of Hamiltonian

Electronic minimization # 1 changed total free energy by -1.800175e-03 at t[s]:   5285.72

---------------------- Fluid Minimization # 2 -----------------------
FluidMinimize: Iter:   0  F: -0.009725706444338  |grad|_K:  7.149e-05  alpha:  1.000e+00
FluidMinimize: Iter:   1  F: -0.009725706444338  |grad|_K:  7.149e-05  alpha:  1.806e-25  linmin: -1.871e-01  cgtest:  1.000e+00  t[s]:   5286.23
FluidMinimize: 	Step increased F by 1.734723e-18, reducing alpha to 1.806247e-26.
FluidMinimize: 	Step increased F by 1.734723e-17, reducing alpha to 1.806247e-27.
FluidMinimize: 	Step increased F by 3.469447e-18, reducing alpha to 1.806247e-28.
FluidMinimize: 	Step increased F by 1.734723e-17, reducing alpha to 1.806247e-29.
FluidMinimize: 	Step increased F by 3.469447e-18, reducing alpha to 1.806247e-30.
FluidMinimize: 	Step increased F by 1.734723e-17, reducing alpha to 1.806247e-31.
FluidMinimize: 	Step failed to reduce F after 6 attempts. Quitting step.
FluidMinimize: 	Undoing step.
FluidMinimize: 	Step failed: resetting search direction.
FluidMinimize: Iter:   2  F: -0.009725706444338  |grad|_K:  7.149e-05  alpha:  1.806e-31
FluidMinimize: Iter:   3  F: -0.009725706444338  |grad|_K:  7.149e-05  alpha:  1.806e-25  linmin: -1.871e-01  cgtest:  1.000e+00  t[s]:   5287.89
FluidMinimize: Encountered beta<0, resetting CG.
FluidMinimize: 	Step increased F by 4.336809e-17, reducing alpha to 1.806247e-26.
FluidMinimize: 	Step increased F by 4.336809e-17, reducing alpha to 1.806247e-27.
FluidMinimize: 	Step increased F by 4.336809e-17, reducing alpha to 1.806247e-28.
FluidMinimize: 	Step increased F by 4.336809e-17, reducing alpha to 1.806247e-29.
FluidMinimize: 	Step increased F by 4.163336e-17, reducing alpha to 1.806247e-30.
FluidMinimize: 	Step increased F by 4.683753e-17, reducing alpha to 1.806247e-31.
FluidMinimize: 	Step failed to reduce F after 6 attempts. Quitting step.
FluidMinimize: 	Undoing step.
FluidMinimize: 	Step failed along negative gradient direction.
FluidMinimize: Probably at roundoff error limit. (Stopping)

Fluid minimization # 2 changed total free energy by 4.336809e-17 at t[s]:   5289.39

-------------------- Electronic Minimization # 2 ---------------------
	FillingsUpdate:  mu: -0.170588172  nElectrons: 339.000000
ElecMinimize: Iter:   0  F: -1819.929884142470883  |grad|_K:  9.467e-06  alpha:  1.000e+00
	FillingsUpdate:  mu: -0.173863458  nElectrons: 339.000000
	SubspaceRotationAdjust: set factor to 0.2
ElecMinimize: Iter:   1  F: -1819.930776377843131  |grad|_K:  1.244e-06  alpha:  1.858e-01  linmin:  2.530e-04  t[s]:   5940.90
	FillingsUpdate:  mu: -0.174081219  nElectrons: 339.000000
	SubspaceRotationAdjust: set factor to 0.231
ElecMinimize: Iter:   2  F: -1819.930808610252825  |grad|_K:  6.008e-07  alpha:  3.885e-01  linmin: -7.093e-06  t[s]:   6396.05
	FillingsUpdate:  mu: -0.174218173  nElectrons: 339.000000
	SubspaceRotationAdjust: set factor to 0.198
ElecMinimize: Iter:   3  F: -1819.930816346988877  |grad|_K:  5.092e-07  alpha:  3.999e-01  linmin: -3.925e-07  t[s]:   6850.89
	FillingsUpdate:  mu: -0.174150362  nElectrons: 339.000000
	SubspaceRotationAdjust: set factor to 0.119
ElecMinimize: Iter:   4  F: -1819.930818240923600  |grad|_K:  3.407e-07  alpha:  1.363e-01  linmin:  2.176e-08  t[s]:   7309.15
ElecMinimize: Converged (|Delta F|<1.000000e-05 for 2 iters).
Setting wave functions to eigenvectors of Hamiltonian

Electronic minimization # 2 changed total free energy by -1.011178e-05 at t[s]:   7329.25

---------------------- Fluid Minimization # 3 -----------------------
FluidMinimize: Iter:   0  F: -0.009787507711573  |grad|_K:  7.318e-05  alpha:  1.000e+00
FluidMinimize: 	Step increased F by 1.561251e-17, reducing alpha to 4.237015e-27.
FluidMinimize: 	Step increased F by 1.387779e-17, reducing alpha to 4.237015e-28.
FluidMinimize: 	Step increased F by 1.561251e-17, reducing alpha to 4.237015e-29.
FluidMinimize: 	Step increased F by 1.561251e-17, reducing alpha to 4.237015e-30.
FluidMinimize: 	Step increased F by 1.561251e-17, reducing alpha to 4.237015e-31.
FluidMinimize: 	Step increased F by 1.561251e-17, reducing alpha to 4.237015e-32.
FluidMinimize: 	Step failed to reduce F after 6 attempts. Quitting step.
FluidMinimize: 	Undoing step.
FluidMinimize: 	Step failed along negative gradient direction.
FluidMinimize: Probably at roundoff error limit. (Stopping)

Fluid minimization # 3 changed total free energy by 1.561251e-17 at t[s]:   7330.91

-------------------- Electronic Minimization # 3 ---------------------
	FillingsUpdate:  mu: -0.174074499  nElectrons: 339.000000
ElecMinimize: Iter:   0  F: -1819.930308043747345  |grad|_K:  8.274e-06  alpha:  1.000e+00
	FillingsUpdate:  mu: -0.173968651  nElectrons: 339.000000
	SubspaceRotationAdjust: set factor to 0.293
ElecMinimize: Iter:   1  F: -1819.930808664019878  |grad|_K:  7.349e-07  alpha:  1.366e-01  linmin:  5.933e-04  t[s]:   7983.83
	FillingsUpdate:  mu: -0.174111320  nElectrons: 339.000000
	SubspaceRotationAdjust: set factor to 0.34
ElecMinimize: Iter:   2  F: -1819.930819466610728  |grad|_K:  2.697e-07  alpha:  3.735e-01  linmin: -8.608e-06  t[s]:   8440.63
	FillingsUpdate:  mu: -0.174058496  nElectrons: 339.000000
	SubspaceRotationAdjust: set factor to 0.235
ElecMinimize: Iter:   3  F: -1819.930820789657218  |grad|_K:  2.569e-07  alpha:  3.392e-01  linmin:  1.502e-07  t[s]:   8900.12
	FillingsUpdate:  mu: -0.174083107  nElectrons: 339.000000
	SubspaceRotationAdjust: set factor to 0.13
ElecMinimize: Iter:   4  F: -1819.930821068189061  |grad|_K:  1.252e-07  alpha:  7.879e-02  linmin:  2.516e-06  t[s]:   9364.42
ElecMinimize: 	Predicted alpha/alphaT>3.000000, increasing alphaT to 2.363559e-01.
	FillingsUpdate:  mu: -0.174098030  nElectrons: 339.000000
	SubspaceRotationAdjust: set factor to 0.128
ElecMinimize: Iter:   5  F: -1819.930821384274623  |grad|_K:  8.234e-08  alpha:  3.766e-01  linmin:  2.201e-05  t[s]:   9929.91
	FillingsUpdate:  mu: -0.174083578  nElectrons: 339.000000
	SubspaceRotationAdjust: set factor to 0.0869
ElecMinimize: Iter:   6  F: -1819.930821462309723  |grad|_K:  5.841e-08  alpha:  2.150e-01  linmin: -6.884e-06  t[s]:  10394.15
	FillingsUpdate:  mu: -0.174082196  nElectrons: 339.000000
	SubspaceRotationAdjust: set factor to 0.138
ElecMinimize: Iter:   7  F: -1819.930821527434091  |grad|_K:  3.278e-08  alpha:  3.556e-01  linmin: -2.917e-05  t[s]:  10852.25
ElecMinimize: Converged (|Delta F|<1.011178e-07 for 2 iters).
Setting wave functions to eigenvectors of Hamiltonian

Electronic minimization # 3 changed total free energy by -3.286510e-06 at t[s]:  10871.62

Fluid<-->Electron self-consistency loop converged to 1.000000e-05 hartrees after 3 minimization pairs at t[s]:  10871.62.

# Ionic positions in lattice coordinates:
ion O   0.664652204969683   0.487580635726202   0.321055906093444 1
ion O   0.434958184150971   0.717663259444481   0.321180825832366 1
ion C   0.500818850140035   0.502424327802908   0.293180741369169 1
ion H   0.420379530432955   0.344223174679073   0.309963423915369 1
ion H   0.712134318130363   0.331523806899166   0.302023140520809 1
ion H   0.315980607779458   0.726457729460400   0.302158820589721 1
ion Pt   0.000000000000000   0.000000000000000  -0.166660000000000 0
ion Pt   0.000000000000000   0.500000000000000  -0.166660000000000 0
ion Pt   0.500000000000000   0.000000000000000  -0.166660000000000 0
ion Pt   0.500000000000000   0.500000000000000  -0.166660000000000 0
ion Pt   0.250000000000000   0.250000000000000  -0.083330000000000 0
ion Pt   0.250000000000000   0.750000000000000  -0.083330000000000 0
ion Pt   0.750000000000000   0.250000000000000  -0.083330000000000 0
ion Pt   0.750000000000000   0.750000000000000  -0.083330000000000 0
ion Pt   0.000208115203560  -0.000059655512673  -0.001848442935255 1
ion Pt  -0.000019173511942   0.499944467210467  -0.002130892164151 1
ion Pt   0.499894449517008   0.000429466092828  -0.001868388328587 1
ion Pt   0.499990546001967   0.500315366123271   0.001840045248813 1
ion Pt   0.251601844020013   0.251054448829702   0.089629307512041 1
ion Pt   0.251980048686645   0.747552103147812   0.089677853322057 1
ion Pt   0.748787756081556   0.251276066772235   0.089514594215786 1
ion Pt   0.748489305589917   0.747245310379952   0.089263155292726 1
ion Pt  -0.000059739501049  -0.000342814304331   0.159738404707883 1
ion Pt   0.000142762601545   0.500099771075133   0.159670121669923 1
ion Pt   0.500734599619713  -0.002545120116919   0.159889286266229 1
ion Pt   0.499898032562493   0.496188126549766   0.168807560669186 1


# Forces in Lattice coordinates:
force O   0.011483651007433  -0.049255717006177  -0.090894339337538 1
force O   0.037849095993032  -0.032613801289773  -0.067153319153391 1
force C  -0.005712807794184   0.042714797322862  -0.010850582598869 1
force H  -0.003940897099223   0.001063854903619  -0.057524548417032 1
force H  -0.013629186999847   0.048235106692038   0.098604464848996 1
force H  -0.030304652989466   0.011826830261611   0.046383619485455 1
force Pt  -0.000327126765758   0.000094094308220   0.607587200174285 0
force Pt   0.000477488334136  -0.000290046750122   0.607343585612786 0
force Pt   0.000949086023672   0.001418306268984   0.630014143043192 0
force Pt  -0.000406248228531  -0.001686075377160   0.570478882889564 0
force Pt   0.036047348068839   0.014906277722718  -0.510655544003219 0
force Pt   0.035413420548740  -0.014001259716795  -0.509975264051495 0
force Pt  -0.035843904784986   0.013442087978002  -0.513550267401468 0
force Pt  -0.034984577715806  -0.012655171268091  -0.518120489398808 0
force Pt   0.000303682718133  -0.000762482750026   0.029574722542940 1
force Pt   0.001452898311362  -0.000303087744834   0.044985599592831 1
force Pt   0.000370978510352  -0.001469522841969   0.060534810920487 1
force Pt  -0.000788959669969  -0.001029256983007  -0.059063511470848 1
force Pt  -0.008622716584284  -0.011932666780919  -0.028205625401903 1
force Pt  -0.012543334348569   0.007018245489666  -0.037689142026264 1
force Pt   0.009188639345813  -0.013158750405452  -0.036562244933490 1
force Pt   0.010964587256819   0.007873748123087  -0.029213328421589 1
force Pt  -0.000412028310425  -0.002308195852991  -0.081171321177465 1
force Pt  -0.001745607172337  -0.003258010162734  -0.082686601492838 1
force Pt  -0.000207870704333  -0.002787687013039  -0.056767160317317 1
force Pt   0.007957426746225   0.003355426063474  -0.012393212413284 1

# Energy components:
   A_diel =       -0.0098151831399793
   Eewald =     2026.2517886513819576
       EH =     3715.1364761981330957
     Eloc =    -7883.3537875884630921
      Enl =      -15.8130402593099113
      Exc =     -575.8944734724362888
 Exc_core =      324.9916799260207654
       KE =      589.0056446397923082
  MuShift =        0.0000000000092093
-------------------------------------
     Etot =    -1819.6855270880123499
       TS =        0.2452944394216810
-------------------------------------
        F =    -1819.9308215274340910

IonicMinimize: Iter:   0  F: -1819.930821527434091  |grad|_K:  1.665e-03  t[s]:  10926.78
IonicMinimize: None of the convergence criteria satisfied after 0 iterations.

#--- Lowdin population analysis ---
# oxidation-state O -0.403 -0.399
# oxidation-state C +0.288
# oxidation-state H +0.229 +0.449 +0.451
# oxidation-state Pt +0.067 +0.067 +0.068 +0.058 -0.051 -0.051 -0.050 -0.050 +0.007 +0.002 +0.003 -0.020 -0.051 -0.057 -0.057 -0.047 +0.015 +0.011 +0.006 -0.062


Dumping '100_1-Solvated.ionpos' ... done
Dumping '100_1-Solvated.n' ... done
Dumping '100_1-Solvated.eigStats' ... 
	eMin: -2.122353 at state 0 ( [ +0.000000 +0.000000 +0.000000 ] spin 0 )
	HOMO: -0.175023 at state 2 ( [ +0.000000 +0.500000 +0.000000 ] spin 0 )
	mu  : -0.174082
	LUMO: -0.173643 at state 2 ( [ +0.000000 +0.500000 +0.000000 ] spin 0 )
	eMax: +0.349089 at state 9 ( [ +0.500000 +0.500000 +0.000000 ] spin 0 )
	HOMO-LUMO gap: +0.001380
	Optical gap  : +0.001380 at state 2 ( [ +0.000000 +0.500000 +0.000000 ] spin 0 )
Dumping '100_1-Solvated.Ecomponents' ... done
End date and time: Sat Jun  1 12:53:24 2019  (Duration: 0-3:03:12.34)
Done!
