--------------------------------------------------------------------------
Initialization of PSM library failed.

  Error: PSM is in the finalized state
--------------------------------------------------------------------------
--------------------------------------------------------------------------
The OpenFabrics (openib) BTL failed to initialize while trying to
allocate some locked memory.  This typically can indicate that the
memlock limits are set too low.  For most HPC installations, the
memlock limits should be set to "unlimited".  The failure occured
here:

  Local host:    node2006
  OMPI source:   btl_openib.c:753
  Function:      ompi_free_list_init_ex_new()
  Device:        qib0
  Memlock limit: 65536

You may need to consult with your system administrator to get this
problem fixed.  This FAQ entry on the Open MPI web site may also be
helpful:

    http://www.open-mpi.org/faq/?category=openfabrics#ib-locked-pages
--------------------------------------------------------------------------

*************** JDFTx 1.4.2 (git hash 74b6e54) ***************

Start date and time: Thu Apr 25 20:27:03 2019
Executable /home/jfm343/JDFTXDIR/build/jdftx with command-line: -i Solvated.in
Running on hosts (process indices):  node2006.physics.cornell.edu (0)
Divided in process groups (process indices):  0 (0)
Resource initialization completed at t[s]:      0.00
Run totals: 1 processes, 12 threads, 0 GPUs


Input parsed successfully to the following command list (including defaults):

basis kpoint-dependent
coords-type Lattice
core-overlap-check vector
coulomb-interaction Slab 001
coulomb-truncation-embed 0 0 0
davidson-band-ratio 1.1
dump End IonicPositions ElecDensity EigStats Ecomponents
dump-name 110_3-Solvated.$VAR
elec-cutoff 20 100
elec-eigen-algo Davidson
elec-ex-corr gga-PBEsol
elec-smearing Fermi 0.01
electronic-minimize  \
	dirUpdateScheme      FletcherReeves \
	linminMethod         DirUpdateRecommended \
	nIterations          200 \
	history              15 \
	knormThreshold       0 \
	energyDiffThreshold  1e-08 \
	nEnergyDiff          2 \
	alphaTstart          1 \
	alphaTmin            1e-10 \
	updateTestStepSize   yes \
	alphaTreduceFactor   0.1 \
	alphaTincreaseFactor 3 \
	nAlphaAdjustMax      3 \
	wolfeEnergy          0.0001 \
	wolfeGradient        0.9 \
	fdTest               no
exchange-regularization WignerSeitzTruncated
fluid NonlinearPCM 298.000000 1.013250
fluid-anion ClO4- 0.2 MeanFieldLJ \
	epsBulk 1 \
	pMol 0 \
	epsInf 1 \
	Pvap 0 \
	sigmaBulk 0 \
	Rvdw 4.55424 \
	Res 0 \
	tauNuc 343133 \
	omegaEl 0.55124 \
	gammaEl 0.257245
fluid-cation Na+ 0.2 MeanFieldLJ \
	epsBulk 1 \
	pMol 0 \
	epsInf 1 \
	Pvap 0 \
	sigmaBulk 0 \
	Rvdw 2.19208 \
	Res 0 \
	tauNuc 343133 \
	omegaEl 0.55124 \
	gammaEl 0.257245
fluid-ex-corr lda-TF lda-PZ
fluid-gummel-loop 10 1.000000e-05
fluid-minimize  \
	dirUpdateScheme      PolakRibiere \
	linminMethod         DirUpdateRecommended \
	nIterations          100 \
	history              15 \
	knormThreshold       1e-11 \
	energyDiffThreshold  0 \
	nEnergyDiff          2 \
	alphaTstart          1 \
	alphaTmin            1e-10 \
	updateTestStepSize   yes \
	alphaTreduceFactor   0.1 \
	alphaTincreaseFactor 3 \
	nAlphaAdjustMax      6 \
	wolfeEnergy          0.0001 \
	wolfeGradient        0.9 \
	fdTest               no
fluid-solvent H2O 55.338 ScalarEOS \
	epsBulk 78.4 \
	pMol 0.92466 \
	epsInf 1.77 \
	Pvap 1.06736e-10 \
	sigmaBulk 4.62e-05 \
	Rvdw 2.61727 \
	Res 1.42 \
	tauNuc 343133 \
	omegaEl 0.55124 \
	gammaEl 0.257245
forces-output-coords Positions
initial-state 110_3-Vacuum.$VAR
ion O   0.500000000000000   0.500000000000000   0.337241738133342 1
ion C   0.500000000000000   0.500000000000000   0.268785259615645 1
ion Pt   0.000000000000000   0.000000000000000  -0.155941670000000 0
ion Pt   0.500000000000000   0.500000000000000  -0.155941670000000 0
ion Pt   0.000000000000000   0.500000000000000  -0.155941670000000 0
ion Pt   0.500000000000000   0.000000000000000  -0.155941670000000 0
ion Pt   0.750000000000000   0.250000000000000  -0.077970830000000 0
ion Pt   0.250000000000000   0.750000000000000  -0.077970830000000 0
ion Pt   0.250000000000000   0.250000000000000  -0.077970830000000 0
ion Pt   0.750000000000000   0.750000000000000  -0.077970830000000 0
ion Pt   0.500000000000000   0.000000000000000   0.000636102420380 1
ion Pt   0.000000000000000   0.000000000000000   0.000068572656625 1
ion Pt   0.000000000000000   0.500000000000000   0.000605190838580 1
ion Pt   0.500000000000000   0.500000000000000   0.002851040616065 1
ion Pt   0.751009812269011   0.248936709626405   0.086798702447866 1
ion Pt   0.248990187730989   0.751063290373595   0.086798702447866 1
ion Pt   0.248990187730989   0.248936709626405   0.086798702447866 1
ion Pt   0.751009812269011   0.751063290373595   0.086798702447866 1
ion Pt   0.000000000000000   0.000000000000000   0.157693427394402 1
ion Pt   0.000000000000000   0.500000000000000   0.157451059033834 1
ion Pt   0.500000000000000   0.000000000000000   0.157739346616474 1
ion Pt   0.500000000000000   0.500000000000000   0.159396339917972 1
ion-species GBRV/$ID_pbesol.uspp
ion-width Ecut
ionic-minimize  \
	dirUpdateScheme      L-BFGS \
	linminMethod         DirUpdateRecommended \
	nIterations          0 \
	history              15 \
	knormThreshold       0.0001 \
	energyDiffThreshold  1e-06 \
	nEnergyDiff          2 \
	alphaTstart          1 \
	alphaTmin            1e-10 \
	updateTestStepSize   yes \
	alphaTreduceFactor   0.1 \
	alphaTincreaseFactor 3 \
	nAlphaAdjustMax      3 \
	wolfeEnergy          0.0001 \
	wolfeGradient        0.9 \
	fdTest               no
kpoint   0.000000000000   0.000000000000   0.000000000000  1.00000000000000
kpoint-folding 4 4 1 
latt-move-scale 1 1 1
latt-scale 1 1 1 
lattice Orthorhombic 10.4761 14.8155 31.4284
lattice-minimize  \
	dirUpdateScheme      L-BFGS \
	linminMethod         DirUpdateRecommended \
	nIterations          0 \
	history              15 \
	knormThreshold       0 \
	energyDiffThreshold  1e-06 \
	nEnergyDiff          2 \
	alphaTstart          1 \
	alphaTmin            1e-10 \
	updateTestStepSize   yes \
	alphaTreduceFactor   0.1 \
	alphaTincreaseFactor 3 \
	nAlphaAdjustMax      3 \
	wolfeEnergy          0.0001 \
	wolfeGradient        0.9 \
	fdTest               no
lcao-params -1 1e-06 0.01
pcm-variant GLSSA13
spintype no-spin
subspace-rotation-factor 1 yes
symmetries automatic
symmetry-threshold 0.0001
target-mu -0.1736 no




---------- Setting up symmetries ----------

Found 8 point-group symmetries of the bravais lattice
Found 4 space-group symmetries with basis
Applied RMS atom displacement 0 bohrs to make symmetries exact.

---------- Initializing the Grid ----------
R = 
[    10.4761          0          0  ]
[          0    14.8155          0  ]
[          0          0    31.4284  ]
unit cell volume = 4877.97
G =
[   0.599762          0          0  ]
[          0   0.424096          0  ]
[          0          0   0.199921  ]
Minimum fftbox size, Smin = [  48  68  144  ]
Chosen fftbox size, S = [  48  70  144  ]

---------- Initializing tighter grid for wavefunction operations ----------
R = 
[    10.4761          0          0  ]
[          0    14.8155          0  ]
[          0          0    31.4284  ]
unit cell volume = 4877.97
G =
[   0.599762          0          0  ]
[          0   0.424096          0  ]
[          0          0   0.199921  ]
Minimum fftbox size, Smin = [  44  60  128  ]
Chosen fftbox size, S = [  48  60  128  ]

---------- Exchange Correlation functional ----------
Initalized PBEsol GGA exchange.
Initalized PBEsol GGA correlation.

---------- Setting up pseudopotentials ----------
Width of ionic core gaussian charges (only for fluid interactions / plotting) set to 0.397384

Reading pseudopotential file '/home/jfm343/JDFTXDIR/build/pseudopotentials/GBRV/o_pbesol.uspp':
  Title: O.  Created by USPP 7.3.6 on 3-2-2014
  Reference state energy: -15.849885.  6 valence electrons in orbitals:
    |200>  occupation: 2  eigenvalue: -0.873214
    |210>  occupation: 4  eigenvalue: -0.330058
  lMax: 2  lLocal: 2  QijEcut: 6
  5 projectors sampled on a log grid with 511 points:
    l: 0  eig: -0.873214  rCut: 1.25
    l: 0  eig: 0.000000  rCut: 1.25
    l: 1  eig: -0.330058  rCut: 1.25
    l: 1  eig: 0.000000  rCut: 1.25
    l: 2  eig: 1.000000  rCut: 1.25
  Partial core density with radius 0.7
  Transforming core density to a uniform radial grid of dG=0.02 with 1265 points.
  Transforming local potential to a uniform radial grid of dG=0.02 with 1265 points.
  Transforming nonlocal projectors to a uniform radial grid of dG=0.02 with 432 points.
  Transforming density augmentations to a uniform radial grid of dG=0.02 with 1265 points.
  Transforming atomic orbitals to a uniform radial grid of dG=0.02 with 432 points.
  Core radius for overlap checks: 1.25 bohrs.

Reading pseudopotential file '/home/jfm343/JDFTXDIR/build/pseudopotentials/GBRV/c_pbesol.uspp':
  Title: C.  Created by USPP 7.3.6 on 3-2-2014
  Reference state energy: -5.383511.  4 valence electrons in orbitals:
    |200>  occupation: 2  eigenvalue: -0.501126
    |210>  occupation: 2  eigenvalue: -0.192448
  lMax: 1  lLocal: 2  QijEcut: 5
  4 projectors sampled on a log grid with 503 points:
    l: 0  eig: -0.501126  rCut: 1.3
    l: 0  eig: 0.000000  rCut: 1.3
    l: 1  eig: -0.192448  rCut: 1.3
    l: 1  eig: 0.000000  rCut: 1.3
  Partial core density with radius 1.1
  Transforming core density to a uniform radial grid of dG=0.02 with 1265 points.
  Transforming local potential to a uniform radial grid of dG=0.02 with 1265 points.
  Transforming nonlocal projectors to a uniform radial grid of dG=0.02 with 432 points.
  Transforming density augmentations to a uniform radial grid of dG=0.02 with 1265 points.
  Transforming atomic orbitals to a uniform radial grid of dG=0.02 with 432 points.
  Core radius for overlap checks: 1.30 bohrs.

Reading pseudopotential file '/home/jfm343/JDFTXDIR/build/pseudopotentials/GBRV/pt_pbesol.uspp':
  Title: Pt.  Created by USPP 7.3.6 on 22-9-15
  Reference state energy: -104.899005.  16 valence electrons in orbitals:
    |510>  occupation: 6  eigenvalue: -2.158847
    |520>  occupation: 9.5  eigenvalue: -0.336311
    |600>  occupation: 0  eigenvalue: -0.320324
    |610>  occupation: 0  eigenvalue: -0.119800
  lMax: 2  lLocal: 3  QijEcut: 5.5
  6 projectors sampled on a log grid with 745 points:
    l: 0  eig: -0.320324  rCut: 2.45
    l: 0  eig: 1.500000  rCut: 2.45
    l: 1  eig: -2.158847  rCut: 1.6
    l: 1  eig: -0.119800  rCut: 1.6
    l: 2  eig: -0.500000  rCut: 1.6
    l: 2  eig: -0.336311  rCut: 1.6
  Partial core density with radius 1.1
  Transforming core density to a uniform radial grid of dG=0.02 with 1265 points.
  Transforming local potential to a uniform radial grid of dG=0.02 with 1265 points.
  Transforming nonlocal projectors to a uniform radial grid of dG=0.02 with 432 points.
  Transforming density augmentations to a uniform radial grid of dG=0.02 with 1265 points.
  Transforming atomic orbitals to a uniform radial grid of dG=0.02 with 432 points.
  Core radius for overlap checks: 2.45 bohrs.

Initialized 3 species with 22 total atoms.

Folded 1 k-points by 4x4x1 to 16 k-points.

---------- Setting up k-points, bands, fillings ----------
Reduced to 9 k-points under symmetry. 
Computing the number of bands and number of electrons
Reading initial fillings from file 110_3-Vacuum.fillings.
nElectrons: 330.000000   nBands: 248   nStates: 9

----- Setting up reduced wavefunction bases (one per k-point) -----
average nbasis = 20843.562 , ideal nbasis = 20839.040

---------- Setting up coulomb interaction ----------
Fluid mode embedding: using embedded box, but periodic Coulomb kernel.
(Fluid response is responsible for (approximate) separation between periodic images.)
Setting up double-sized grid for truncated Coulomb potentials:
R = 
[    10.4761          0          0  ]
[          0    14.8155          0  ]
[          0          0    62.8568  ]
unit cell volume = 9755.93
G =
[   0.599762          0          0  ]
[          0   0.424096          0  ]
[          0          0  0.0999604  ]
Chosen fftbox size, S = [  48  70  288  ]
Integer grid location selected as the embedding center:
   Grid: [  0  0  0  ]
   Lattice: [  0  0  0  ]
   Cartesian: [  0  0  0  ]
Constructing Wigner-Seitz cell: 6 faces (6 quadrilaterals, 0 hexagons)
Range-separation parameter for embedded mesh potentials due to point charges: 0.589372 bohrs.

---------- Setting up ewald sum ----------
Optimum gaussian width for ewald sums = 5.092478 bohr.
Real space sum over 715 unit cells with max indices [  6  5  2  ]
Reciprocal space sum over 5863 terms with max indices [  5  6  20  ]

---------- Allocating electronic variables ----------
Initializing wave functions:  reading from '110_3-Vacuum.wfns'
----- createFluidSolver() ----- (Fluid-side solver setup)
   Initializing fluid molecule 'H2O'
     Initializing site 'O'
       Electron density: proportional to exp(-r/0.36935)*erfc((r-0.51523)/0.36823) with norm 6.826
       Charge density: gaussian nuclear width 0.478731 with net site charge 0.826
       Polarizability: cuspless exponential with width 0.32 and norm 3.73
       Hard sphere radius: 2.57003 bohrs
       Positions in reference frame:
         [ +0.000000 +0.000000 +0.000000 ]
     Initializing site 'H'
       Electron density: proportional to exp(-r/0.34641)*erfc((r-0)/0.390882) with norm 0.587
       Charge density: gaussian nuclear width 0.377945 with net site charge -0.413
       Polarizability: cuspless exponential with width 0.39 and norm 3.3
       Positions in reference frame:
         [ +0.000000 -1.441945 +1.122523 ]
         [ +0.000000 +1.441945 +1.122523 ]
     Net charge: 0   dipole magnitude: 0.927204
     Initializing spherical shell mfKernel with radius 2.61727 Bohr
     deltaS corrections:
       site 'O': -7.54299
       site 'H': -6.83917
   Initializing fluid molecule 'Na+'
     Initializing site 'Na'
       Electron density: proportional to exp(-r/0.19682)*erfc((r-0.71491)/0.41314) with norm 8.1383
       Charge density: gaussian nuclear width 0.365347 with net site charge -1
       Hard sphere radius: 1.86327 bohrs
       Positions in reference frame:
         [ +0.000000 +0.000000 +0.000000 ]
     Net charge: -1   dipole magnitude: 0
     Initializing gaussian mfKernel with width: 1.55004 Bohr
     deltaS corrections:
       site 'Na': -22.3555
   Initializing fluid molecule 'ClO4-'
     Initializing site 'Cl'
       Electron density: proportional to exp(-r/0.48793)*erfc((r-0.93371)/0.45657) with norm 6.2308
       Charge density: gaussian nuclear width 0.55117 with net site charge -0.7692
       Hard sphere radius: 4.42196 bohrs
       Positions in reference frame:
         [ +0.000000 +0.000000 +0.000000 ]
     Initializing site 'O'
       Electron density: proportional to exp(-r/0.36013)*erfc((r-0.51636)/0.37371) with norm 6.4423
       Charge density: gaussian nuclear width 0.478731 with net site charge 0.4423
       Positions in reference frame:
         [ +1.705286 +1.705286 +1.705286 ]
         [ +1.705286 -1.705286 -1.705286 ]
         [ -1.705286 +1.705286 -1.705286 ]
         [ -1.705286 -1.705286 +1.705286 ]
     Net charge: 1   dipole magnitude: 0
     Initializing gaussian mfKernel with width: 3.22033 Bohr
     deltaS corrections:
       site 'Cl': -87.0374
       site 'O': 12.0842

Correction to mu due to finite nuclear width = -0.0335618
   Cavity determined by nc: 0.001 and sigma: 0.6
   Effective cavity tension: 9.5e-06 Eh/bohr^2 to account for cavitation and dispersion.
   Nonlinear dielectric with epsBulk = 78.4 and epsInf = 1.77 with density Nmol = 0.0049383 of dipoles pMol = 0.92466 at T = 298 K.
   Nonlinear ions with screening length = 12.843 bohrs and Z = 1 at T = 298 K.


---- Citations for features of the code used in this run ----

   Software package:
      R. Sundararaman, K. Letchworth-Weaver, K.A. Schwarz, D. Gunceler, Y. Ozhabes and T.A. Arias, 'JDFTx: software for joint density-functional theory', SoftwareX 6, 278 (2017)

   gga-PBEsol exchange-correlation functional:
      J.P. Perdew et al., Phys. Rev. Lett. 100, 136406 (2008)

   Pseudopotentials:
      KF Garrity, JW Bennett, KM Rabe and D Vanderbilt, Comput. Mater. Sci. 81, 446 (2014)

   Truncated Coulomb potentials:
      R. Sundararaman and T.A. Arias, Phys. Rev. B 87, 165122 (2013)

   Linear/nonlinear dielectric/ionic fluid model with effective cavity tension:
      D. Gunceler, K. Letchworth-Weaver, R. Sundararaman, K.A. Schwarz and T.A. Arias, Modelling Simul. Mater. Sci. Eng. 21, 074005 (2013)

   Total energy minimization with Auxiliary Hamiltonian:
      C. Freysoldt, S. Boeck, and J. Neugebauer, Phys. Rev. B 79, 241103(R) (2009)

   Grand-canonical (fixed-potential) DFT:
      R. Sundararaman, W. A. Goddard III and T. A. Arias, J. Chem. Phys. 146, 114104 (2017)

This list may not be complete. Please suggest additional citations or
report any other bugs at https://github.com/shankar1729/jdftx/issues

Initialization completed successfully at t[s]:     92.60

Shifting auxilliary hamiltonian by 0.021388 to set nElectrons=330.000000
Initializing state of NonlinearPCM using a similar LinearPCM: 	Linear fluid (dielectric constant: 78.4, screening length: 12.843 Bohr) occupying 0.710540 of unit cell:	Completed after 47 iterations at t[s]:    106.30

-------- Electron <-> Fluid self-consistency loop -----------

---------------------- Fluid Minimization # 1 -----------------------
FluidMinimize: Iter:   0  G: +0.000822030070705  |grad|_K:  2.196e-05  alpha:  1.000e+00
FluidMinimize: Iter:   1  G: +0.000801205517651  |grad|_K:  2.392e-05  alpha:  2.979e-02  linmin: -5.209e-02  cgtest:  4.565e-01  t[s]:    108.78
FluidMinimize: Iter:   2  G: +0.000766503889550  |grad|_K:  4.368e-05  alpha:  4.860e-02  linmin: -3.028e-04  cgtest: -3.349e-01  t[s]:    109.32
FluidMinimize: Iter:   3  G: +0.000695729764642  |grad|_K:  4.689e-05  alpha:  3.860e-02  linmin: -2.962e-03  cgtest:  9.241e-01  t[s]:    109.85
FluidMinimize: Iter:   4  G: +0.000673817994928  |grad|_K:  1.512e-05  alpha:  1.030e-02  linmin: -1.879e-04  cgtest: -7.489e-04  t[s]:    110.39
FluidMinimize: 	Predicted alpha/alphaT>3.000000, increasing alphaT to 3.088747e-02.
FluidMinimize: 	Predicted alpha/alphaT>3.000000, increasing alphaT to 9.266241e-02.
FluidMinimize: Iter:   5  G: +0.000640381028652  |grad|_K:  2.071e-05  alpha:  1.501e-01  linmin: -2.249e-03  cgtest:  9.511e-03  t[s]:    111.40
FluidMinimize: Iter:   6  G: +0.000624318035620  |grad|_K:  1.436e-05  alpha:  3.787e-02  linmin: -1.535e-03  cgtest: -6.332e-03  t[s]:    111.94
FluidMinimize: Iter:   7  G: +0.000611193384213  |grad|_K:  2.748e-05  alpha:  6.512e-02  linmin:  4.379e-05  cgtest: -7.506e-03  t[s]:    112.47
FluidMinimize: Iter:   8  G: +0.000590796132896  |grad|_K:  1.326e-05  alpha:  2.822e-02  linmin:  7.803e-04  cgtest:  5.073e-03  t[s]:    113.00
FluidMinimize: 	Predicted alpha/alphaT>3.000000, increasing alphaT to 8.466482e-02.
FluidMinimize: 	Predicted alpha/alphaT>3.000000, increasing alphaT to 2.539945e-01.
FluidMinimize: Iter:   9  G: +0.000537277822222  |grad|_K:  1.759e-05  alpha:  3.132e-01  linmin: -7.661e-03  cgtest: -1.286e-02  t[s]:    114.00
FluidMinimize: Iter:  10  G: +0.000529747203397  |grad|_K:  1.966e-05  alpha:  2.385e-02  linmin: -2.451e-03  cgtest: -2.168e-02  t[s]:    114.54
FluidMinimize: 	Predicted alpha/alphaT>3.000000, increasing alphaT to 7.156442e-02.
FluidMinimize: Iter:  11  G: +0.000499816312230  |grad|_K:  1.095e-05  alpha:  7.789e-02  linmin: -4.001e-03  cgtest: -1.414e-02  t[s]:    115.32
FluidMinimize: Iter:  12  G: +0.000494318176175  |grad|_K:  1.203e-05  alpha:  4.665e-02  linmin:  1.828e-05  cgtest: -1.750e-02  t[s]:    115.87
FluidMinimize: Iter:  13  G: +0.000486403866400  |grad|_K:  2.090e-05  alpha:  5.650e-02  linmin: -1.967e-05  cgtest:  1.606e-02  t[s]:    116.42
FluidMinimize: Converged (|Delta G|<1.000000e-05 for 2 iters).

Fluid minimization # 1 changed total free energy by -3.356262e-04 at t[s]:    116.72

-------------------- Electronic Minimization # 1 ---------------------
	FillingsUpdate:  mu: -0.173600000  nElectrons: 330.000000
ElecMinimize: Iter:   0  G: -1744.847043135822332  |grad|_K:  3.070e-05  alpha:  1.000e+00
	FillingsUpdate:  mu: -0.173600000  nElectrons: 330.028605
	SubspaceRotationAdjust: set factor to 0.394
ElecMinimize: Iter:   1  G: -1744.847160610086121  |grad|_K:  9.924e-06  alpha:  3.616e-03  linmin:  5.527e-02  t[s]:    658.59
	FillingsUpdate:  mu: -0.173600000  nElectrons: 330.020155
	SubspaceRotationAdjust: set factor to 0.176
ElecMinimize: Iter:   2  G: -1744.847180185075786  |grad|_K:  3.290e-06  alpha:  5.771e-03  linmin: -1.660e-05  t[s]:   1043.11
ElecMinimize: 	Predicted alpha/alphaT>3.000000, increasing alphaT to 1.731165e-02.
ElecMinimize: 	Predicted alpha/alphaT>3.000000, increasing alphaT to 5.193495e-02.
	FillingsUpdate:  mu: -0.173600000  nElectrons: 330.029269
	SubspaceRotationAdjust: set factor to 0.106
	SubspaceRotationAdjust: resetting CG because factor has changed by 0.105678
ElecMinimize: 	State modified externally: resetting search direction.
ElecMinimize: Iter:   3  G: -1744.847209662768819  |grad|_K:  3.313e-06  alpha:  5.816e-02
	FillingsUpdate:  mu: -0.173600000  nElectrons: 330.020707
	SubspaceRotationAdjust: set factor to 0.105
ElecMinimize: Iter:   4  G: -1744.847229207686723  |grad|_K:  2.129e-06  alpha:  3.805e-02  linmin: -1.876e-06  t[s]:   2134.10
ElecMinimize: 	Predicted alpha/alphaT>3.000000, increasing alphaT to 1.141389e-01.
ElecMinimize: 	Predicted alpha/alphaT>3.000000, increasing alphaT to 3.424167e-01.
	FillingsUpdate:  mu: -0.173600000  nElectrons: 330.025293
	SubspaceRotationAdjust: set factor to 0.0758
ElecMinimize: Iter:   5  G: -1744.847303399062866  |grad|_K:  1.860e-06  alpha:  3.497e-01  linmin: -4.475e-06  t[s]:   2699.45
	FillingsUpdate:  mu: -0.173600000  nElectrons: 330.026098
	SubspaceRotationAdjust: set factor to 0.0624
ElecMinimize: Iter:   6  G: -1744.847346113365802  |grad|_K:  9.979e-07  alpha:  2.637e-01  linmin:  4.145e-07  t[s]:   3081.98
	FillingsUpdate:  mu: -0.173600000  nElectrons: 330.024088
	SubspaceRotationAdjust: set factor to 0.056
ElecMinimize: Iter:   7  G: -1744.847372989835321  |grad|_K:  9.561e-07  alpha:  5.767e-01  linmin: -2.148e-06  t[s]:   3467.98
	FillingsUpdate:  mu: -0.173600000  nElectrons: 330.028322
	SubspaceRotationAdjust: set factor to 0.0411
ElecMinimize: Iter:   8  G: -1744.847378007636280  |grad|_K:  1.064e-06  alpha:  1.172e-01  linmin: -6.749e-06  t[s]:   3858.54
	FillingsUpdate:  mu: -0.173600000  nElectrons: 330.027051
	SubspaceRotationAdjust: set factor to 0.0547
ElecMinimize: Iter:   9  G: -1744.847396051019132  |grad|_K:  7.633e-07  alpha:  3.401e-01  linmin: -1.295e-06  t[s]:   4237.06
	FillingsUpdate:  mu: -0.173600000  nElectrons: 330.023633
	SubspaceRotationAdjust: set factor to 0.0324
ElecMinimize: Iter:  10  G: -1744.847408285046185  |grad|_K:  1.312e-06  alpha:  4.486e-01  linmin: -2.499e-06  t[s]:   4624.73
	FillingsUpdate:  mu: -0.173600000  nElectrons: 330.028369
	SubspaceRotationAdjust: set factor to 0.0212
ElecMinimize: Iter:  11  G: -1744.847415968175255  |grad|_K:  6.982e-07  alpha:  9.523e-02  linmin: -5.718e-06  t[s]:   5014.93
ElecMinimize: 	Predicted alpha/alphaT>3.000000, increasing alphaT to 2.856811e-01.
	FillingsUpdate:  mu: -0.173600000  nElectrons: 330.031362
	SubspaceRotationAdjust: set factor to 0.0163
ElecMinimize: Iter:  12  G: -1744.847427689133383  |grad|_K:  7.760e-07  alpha:  5.134e-01  linmin:  1.113e-06  t[s]:   5488.42
	FillingsUpdate:  mu: -0.173600000  nElectrons: 330.027907
	SubspaceRotationAdjust: set factor to 0.0116
	SubspaceRotationAdjust: resetting CG because factor has changed by 0.109769
ElecMinimize: 	State modified externally: resetting search direction.
ElecMinimize: Iter:  13  G: -1744.847433756775445  |grad|_K:  5.185e-07  alpha:  2.154e-01
	FillingsUpdate:  mu: -0.173600000  nElectrons: 330.029108
	SubspaceRotationAdjust: set factor to 0.026
ElecMinimize: Iter:  14  G: -1744.847437851808763  |grad|_K:  2.223e-07  alpha:  3.255e-01  linmin: -4.346e-05  t[s]:   6406.93
ElecMinimize: Converged (|Delta G|<1.000000e-05 for 2 iters).
Setting wave functions to eigenvectors of Hamiltonian

Electronic minimization # 1 changed total free energy by -3.947160e-04 at t[s]:   6425.06

---------------------- Fluid Minimization # 2 -----------------------
FluidMinimize: Iter:   0  G: -0.004940801649121  |grad|_K:  7.097e-05  alpha:  1.000e+00
FluidMinimize: Iter:   1  G: -0.004940802528127  |grad|_K:  7.097e-05  alpha:  9.017e-08  linmin: -1.047e-01  cgtest:  1.000e+00  t[s]:   6425.92
FluidMinimize: Encountered beta<0, resetting CG.
FluidMinimize: 	Predicted alpha/alphaT>3.000000, increasing alphaT to 2.705157e-07.
FluidMinimize: 	Predicted alpha/alphaT>3.000000, increasing alphaT to 8.115471e-07.
FluidMinimize: 	Predicted alpha/alphaT>3.000000, increasing alphaT to 2.434641e-06.
FluidMinimize: 	Predicted alpha/alphaT>3.000000, increasing alphaT to 7.303924e-06.
FluidMinimize: 	Predicted alpha/alphaT>3.000000, increasing alphaT to 2.191177e-05.
FluidMinimize: 	Predicted alpha/alphaT>3.000000, increasing alphaT to 6.573532e-05.
FluidMinimize: Iter:   2  G: -0.005045784936495  |grad|_K:  2.093e-05  alpha:  2.099e-02  linmin: -7.679e-03  cgtest:  1.166e-01  t[s]:   6427.64
FluidMinimize: Iter:   3  G: -0.005054461249837  |grad|_K:  2.087e-05  alpha:  2.004e-02  linmin:  2.379e-04  cgtest: -2.124e-02  t[s]:   6428.18
FluidMinimize: 	Predicted alpha/alphaT>3.000000, increasing alphaT to 6.013419e-02.
FluidMinimize: Iter:   4  G: -0.005082485317102  |grad|_K:  9.963e-06  alpha:  6.665e-02  linmin: -6.504e-05  cgtest:  2.492e-01  t[s]:   6428.94
FluidMinimize: Iter:   5  G: -0.005086331217781  |grad|_K:  1.102e-05  alpha:  4.039e-02  linmin:  1.829e-04  cgtest: -3.150e-03  t[s]:   6429.48
FluidMinimize: Iter:   6  G: -0.005090421291466  |grad|_K:  1.400e-05  alpha:  3.482e-02  linmin:  1.721e-04  cgtest:  3.141e-03  t[s]:   6430.01
FluidMinimize: Iter:   7  G: -0.005097336060451  |grad|_K:  6.753e-06  alpha:  3.652e-02  linmin:  1.312e-03  cgtest: -4.167e-03  t[s]:   6430.54
FluidMinimize: 	Predicted alpha/alphaT>3.000000, increasing alphaT to 1.095522e-01.
FluidMinimize: Iter:   8  G: -0.005107511180655  |grad|_K:  1.688e-05  alpha:  2.343e-01  linmin:  2.920e-03  cgtest:  6.989e-04  t[s]:   6431.31
FluidMinimize: Iter:   9  G: -0.005111344867667  |grad|_K:  7.162e-06  alpha:  1.308e-02  linmin: -1.106e-02  cgtest:  2.176e-01  t[s]:   6431.85
FluidMinimize: 	Predicted alpha/alphaT>3.000000, increasing alphaT to 3.924935e-02.
FluidMinimize: Iter:  10  G: -0.005115200579078  |grad|_K:  8.864e-06  alpha:  7.503e-02  linmin:  6.984e-04  cgtest: -5.268e-02  t[s]:   6432.62
FluidMinimize: Converged (|Delta G|<3.947160e-06 for 2 iters).

Fluid minimization # 2 changed total free energy by -1.743989e-04 at t[s]:   6432.92

-------------------- Electronic Minimization # 2 ---------------------
	FillingsUpdate:  mu: -0.173600000  nElectrons: 329.864391
ElecMinimize: Iter:   0  G: -1744.839239789257135  |grad|_K:  4.199e-05  alpha:  1.000e+00
	FillingsUpdate:  mu: -0.173600000  nElectrons: 330.058716
	SubspaceRotationAdjust: set factor to 0.00968
ElecMinimize: Iter:   1  G: -1744.847543777747660  |grad|_K:  4.509e-06  alpha:  1.114e-01  linmin:  1.122e-01  t[s]:   6982.26
	FillingsUpdate:  mu: -0.173600000  nElectrons: 330.040854
	SubspaceRotationAdjust: set factor to 0.00404
ElecMinimize: Iter:   2  G: -1744.847675385256935  |grad|_K:  1.298e-06  alpha:  1.512e-01  linmin:  4.845e-04  t[s]:   7368.73
ElecMinimize: 	Predicted alpha/alphaT>3.000000, increasing alphaT to 4.536221e-01.
	FillingsUpdate:  mu: -0.173600000  nElectrons: 330.045232
	SubspaceRotationAdjust: set factor to 0.00702
ElecMinimize: Iter:   3  G: -1744.847711470518334  |grad|_K:  7.928e-07  alpha:  4.580e-01  linmin: -9.518e-06  t[s]:   7842.37
	FillingsUpdate:  mu: -0.173600000  nElectrons: 330.050396
	SubspaceRotationAdjust: set factor to 0.0077
ElecMinimize: Iter:   4  G: -1744.847726337281074  |grad|_K:  4.267e-07  alpha:  5.054e-01  linmin: -5.756e-05  t[s]:   8230.07
	FillingsUpdate:  mu: -0.173600000  nElectrons: 330.051818
	SubspaceRotationAdjust: set factor to 0.00844
ElecMinimize: Iter:   5  G: -1744.847730514092291  |grad|_K:  3.471e-07  alpha:  4.902e-01  linmin: -1.589e-06  t[s]:   8617.50
	FillingsUpdate:  mu: -0.173600000  nElectrons: 330.050668
	SubspaceRotationAdjust: set factor to 0.0101
ElecMinimize: Iter:   6  G: -1744.847735133350852  |grad|_K:  3.325e-07  alpha:  8.196e-01  linmin:  4.713e-05  t[s]:   9002.04
	FillingsUpdate:  mu: -0.173600000  nElectrons: 330.050721
	SubspaceRotationAdjust: set factor to 0.012
ElecMinimize: Iter:   7  G: -1744.847739165128132  |grad|_K:  3.460e-07  alpha:  7.799e-01  linmin: -1.064e-05  t[s]:   9389.06
	FillingsUpdate:  mu: -0.173600000  nElectrons: 330.052153
	SubspaceRotationAdjust: set factor to 0.013
ElecMinimize: Iter:   8  G: -1744.847742755700665  |grad|_K:  2.999e-07  alpha:  6.406e-01  linmin: -2.282e-06  t[s]:   9777.35
	FillingsUpdate:  mu: -0.173600000  nElectrons: 330.052083
	SubspaceRotationAdjust: set factor to 0.0161
ElecMinimize: Iter:   9  G: -1744.847745455859013  |grad|_K:  2.920e-07  alpha:  6.413e-01  linmin: -6.081e-06  t[s]:  10162.05
ElecMinimize: Converged (|Delta G|<3.947160e-06 for 2 iters).
Setting wave functions to eigenvectors of Hamiltonian

Electronic minimization # 2 changed total free energy by -1.332051e-04 at t[s]:  10179.41

---------------------- Fluid Minimization # 3 -----------------------
FluidMinimize: Iter:   0  G: -0.009251135385625  |grad|_K:  4.720e-05  alpha:  1.000e+00
FluidMinimize: Iter:   1  G: -0.009251139227701  |grad|_K:  4.719e-05  alpha:  8.912e-07  linmin: -1.037e-01  cgtest:  1.000e+00  t[s]:  10180.27
FluidMinimize: Encountered beta<0, resetting CG.
FluidMinimize: 	Predicted alpha/alphaT>3.000000, increasing alphaT to 2.673650e-06.
FluidMinimize: 	Predicted alpha/alphaT>3.000000, increasing alphaT to 8.020951e-06.
FluidMinimize: 	Predicted alpha/alphaT>3.000000, increasing alphaT to 2.406285e-05.
FluidMinimize: 	Predicted alpha/alphaT>3.000000, increasing alphaT to 7.218856e-05.
FluidMinimize: 	Predicted alpha/alphaT>3.000000, increasing alphaT to 2.165657e-04.
FluidMinimize: 	Predicted alpha/alphaT>3.000000, increasing alphaT to 6.496970e-04.
FluidMinimize: Iter:   2  G: -0.009288884800698  |grad|_K:  2.676e-05  alpha:  1.837e-02  linmin:  1.219e-02  cgtest: -1.282e-01  t[s]:  10182.03
FluidMinimize: Iter:   3  G: -0.009297206453688  |grad|_K:  1.516e-05  alpha:  1.316e-02  linmin:  4.350e-05  cgtest:  1.899e-01  t[s]:  10182.58
FluidMinimize: 	Predicted alpha/alphaT>3.000000, increasing alphaT to 3.947106e-02.
FluidMinimize: Iter:   4  G: -0.009309767884210  |grad|_K:  1.387e-05  alpha:  5.634e-02  linmin: -1.649e-03  cgtest: -6.766e-02  t[s]:  10183.38
FluidMinimize: Iter:   5  G: -0.009312770463515  |grad|_K:  1.017e-05  alpha:  1.569e-02  linmin: -2.031e-03  cgtest: -7.499e-04  t[s]:  10183.92
FluidMinimize: Iter:   6  G: -0.009315404746530  |grad|_K:  6.194e-06  alpha:  2.597e-02  linmin:  6.414e-04  cgtest: -2.465e-02  t[s]:  10184.47
FluidMinimize: Iter:   7  G: -0.009318319131148  |grad|_K:  1.175e-05  alpha:  7.734e-02  linmin: -4.637e-03  cgtest:  3.843e-02  t[s]:  10185.01
FluidMinimize: Iter:   8  G: -0.009320653178876  |grad|_K:  7.108e-06  alpha:  1.655e-02  linmin: -2.232e-03  cgtest: -5.920e-02  t[s]:  10185.56
FluidMinimize: 	Predicted alpha/alphaT>3.000000, increasing alphaT to 4.965750e-02.
FluidMinimize: Iter:   9  G: -0.009323696884416  |grad|_K:  8.739e-06  alpha:  6.098e-02  linmin:  4.869e-04  cgtest:  2.792e-03  t[s]:  10186.34
FluidMinimize: Iter:  10  G: -0.009327365792447  |grad|_K:  1.583e-05  alpha:  4.992e-02  linmin: -2.232e-04  cgtest:  3.128e-02  t[s]:  10186.89
FluidMinimize: Iter:  11  G: -0.009333277649896  |grad|_K:  9.669e-06  alpha:  2.425e-02  linmin: -1.794e-04  cgtest: -3.830e-02  t[s]:  10187.43
FluidMinimize: 	Predicted alpha/alphaT>3.000000, increasing alphaT to 7.273583e-02.
FluidMinimize: Iter:  12  G: -0.009340544643774  |grad|_K:  1.358e-05  alpha:  8.017e-02  linmin:  5.484e-04  cgtest:  1.162e-02  t[s]:  10188.22
FluidMinimize: Iter:  13  G: -0.009344490894158  |grad|_K:  1.478e-05  alpha:  2.342e-02  linmin:  3.777e-03  cgtest: -2.769e-02  t[s]:  10188.76
FluidMinimize: Iter:  14  G: -0.009349192852221  |grad|_K:  7.555e-06  alpha:  2.320e-02  linmin:  7.583e-04  cgtest:  6.860e-02  t[s]:  10189.30
FluidMinimize: 	Predicted alpha/alphaT>3.000000, increasing alphaT to 6.960112e-02.
FluidMinimize: Iter:  15  G: -0.009353434688969  |grad|_K:  1.448e-05  alpha:  7.741e-02  linmin:  7.138e-06  cgtest: -4.067e-05  t[s]:  10190.07
FluidMinimize: Iter:  16  G: -0.009357736505048  |grad|_K:  1.331e-05  alpha:  2.116e-02  linmin: -3.037e-04  cgtest: -1.314e-02  t[s]:  10190.62
FluidMinimize: Iter:  17  G: -0.009364070663577  |grad|_K:  6.615e-06  alpha:  3.680e-02  linmin: -4.550e-04  cgtest: -5.709e-02  t[s]:  10191.16
FluidMinimize: Iter:  18  G: -0.009366721667558  |grad|_K:  1.252e-05  alpha:  6.271e-02  linmin:  1.621e-03  cgtest: -1.396e-02  t[s]:  10191.72
FluidMinimize: Iter:  19  G: -0.009369724887092  |grad|_K:  8.991e-06  alpha:  2.076e-02  linmin:  2.282e-03  cgtest:  8.530e-03  t[s]:  10192.27
FluidMinimize: Iter:  20  G: -0.009373886212646  |grad|_K:  8.740e-06  alpha:  5.424e-02  linmin: -4.826e-04  cgtest:  3.523e-02  t[s]:  10192.82
FluidMinimize: Iter:  21  G: -0.009377033259574  |grad|_K:  1.422e-05  alpha:  4.249e-02  linmin: -3.879e-04  cgtest: -2.234e-02  t[s]:  10193.37
FluidMinimize: Iter:  22  G: -0.009381491739030  |grad|_K:  6.697e-06  alpha:  2.269e-02  linmin: -9.268e-05  cgtest: -4.401e-02  t[s]:  10193.92
FluidMinimize: 	Predicted alpha/alphaT>3.000000, increasing alphaT to 6.807959e-02.
FluidMinimize: Iter:  23  G: -0.009384821024465  |grad|_K:  1.016e-05  alpha:  7.673e-02  linmin:  5.519e-04  cgtest:  8.645e-03  t[s]:  10194.71
FluidMinimize: Iter:  24  G: -0.009388781131366  |grad|_K:  1.586e-05  alpha:  4.034e-02  linmin:  5.076e-04  cgtest: -6.479e-03  t[s]:  10195.27
FluidMinimize: Iter:  25  G: -0.009395491021465  |grad|_K:  6.609e-06  alpha:  2.793e-02  linmin: -1.628e-04  cgtest:  4.964e-02  t[s]:  10195.82
FluidMinimize: Iter:  26  G: -0.009398197154442  |grad|_K:  1.112e-05  alpha:  6.434e-02  linmin:  1.072e-03  cgtest: -1.237e-02  t[s]:  10196.36
FluidMinimize: Iter:  27  G: -0.009401329690648  |grad|_K:  1.200e-05  alpha:  2.678e-02  linmin:  7.811e-04  cgtest:  2.991e-02  t[s]:  10196.90
FluidMinimize: Iter:  28  G: -0.009407433195305  |grad|_K:  7.513e-06  alpha:  4.398e-02  linmin: -9.407e-04  cgtest:  6.767e-03  t[s]:  10197.45
FluidMinimize: Iter:  29  G: -0.009410524507906  |grad|_K:  1.250e-05  alpha:  5.598e-02  linmin: -1.739e-03  cgtest:  1.241e-04  t[s]:  10198.03
FluidMinimize: Iter:  30  G: -0.009413752677930  |grad|_K:  7.325e-06  alpha:  2.070e-02  linmin: -1.597e-03  cgtest:  8.534e-03  t[s]:  10198.57
FluidMinimize: Iter:  31  G: -0.009416298428489  |grad|_K:  7.782e-06  alpha:  4.851e-02  linmin:  2.054e-04  cgtest: -1.474e-02  t[s]:  10199.13
FluidMinimize: Iter:  32  G: -0.009419951346190  |grad|_K:  1.451e-05  alpha:  6.239e-02  linmin: -6.175e-04  cgtest:  1.649e-02  t[s]:  10199.68
FluidMinimize: Iter:  33  G: -0.009424815963530  |grad|_K:  6.350e-06  alpha:  2.383e-02  linmin:  1.653e-04  cgtest: -1.046e-02  t[s]:  10200.22
FluidMinimize: Iter:  34  G: -0.009426778785917  |grad|_K:  8.265e-06  alpha:  5.034e-02  linmin: -7.717e-05  cgtest: -3.758e-03  t[s]:  10200.77
FluidMinimize: Iter:  35  G: -0.009429152332122  |grad|_K:  1.142e-05  alpha:  3.576e-02  linmin:  6.779e-05  cgtest: -4.595e-03  t[s]:  10201.32
FluidMinimize: Iter:  36  G: -0.009433959347070  |grad|_K:  6.360e-06  alpha:  3.813e-02  linmin:  1.917e-04  cgtest: -4.296e-03  t[s]:  10201.86
FluidMinimize: Iter:  37  G: -0.009435987512803  |grad|_K:  1.006e-05  alpha:  5.182e-02  linmin: -1.864e-04  cgtest:  4.676e-03  t[s]:  10202.40
FluidMinimize: Iter:  38  G: -0.009438554797963  |grad|_K:  8.959e-06  alpha:  2.579e-02  linmin: -5.850e-04  cgtest: -1.980e-02  t[s]:  10202.95
FluidMinimize: Iter:  39  G: -0.009441800023201  |grad|_K:  6.182e-06  alpha:  4.148e-02  linmin: -3.813e-05  cgtest: -6.440e-03  t[s]:  10203.49
FluidMinimize: Iter:  40  G: -0.009443496162084  |grad|_K:  1.034e-05  alpha:  4.595e-02  linmin:  1.020e-03  cgtest: -1.352e-02  t[s]:  10204.03
FluidMinimize: Iter:  41  G: -0.009446370524924  |grad|_K:  7.246e-06  alpha:  2.802e-02  linmin: -1.054e-04  cgtest:  9.161e-02  t[s]:  10204.57
FluidMinimize: Iter:  42  G: -0.009448405741937  |grad|_K:  7.197e-06  alpha:  4.000e-02  linmin: -2.330e-04  cgtest: -1.676e-03  t[s]:  10205.11
FluidMinimize: Iter:  43  G: -0.009449535866991  |grad|_K:  7.984e-06  alpha:  2.239e-02  linmin: -2.174e-04  cgtest:  3.642e-03  t[s]:  10205.67
FluidMinimize: Iter:  44  G: -0.009452507265978  |grad|_K:  5.132e-06  alpha:  4.780e-02  linmin: -1.267e-03  cgtest: -5.149e-02  t[s]:  10206.21
FluidMinimize: Iter:  45  G: -0.009453688583554  |grad|_K:  8.207e-06  alpha:  4.581e-02  linmin: -2.691e-04  cgtest:  4.266e-03  t[s]:  10206.75
FluidMinimize: Iter:  46  G: -0.009455212865788  |grad|_K:  7.479e-06  alpha:  2.328e-02  linmin: -1.817e-04  cgtest:  1.324e-02  t[s]:  10207.29
FluidMinimize: Converged (|Delta G|<1.743989e-06 for 2 iters).

Fluid minimization # 3 changed total free energy by -2.040775e-04 at t[s]:  10207.59

-------------------- Electronic Minimization # 3 ---------------------
	FillingsUpdate:  mu: -0.173600000  nElectrons: 330.062894
ElecMinimize: Iter:   0  G: -1744.845427981488683  |grad|_K:  1.062e-05  alpha:  1.000e+00
	FillingsUpdate:  mu: -0.173600000  nElectrons: 330.094281
	SubspaceRotationAdjust: set factor to 0.0123
ElecMinimize: Iter:   1  G: -1744.847199600379781  |grad|_K:  4.886e-06  alpha:  3.370e-01  linmin:  1.361e-03  t[s]:  10755.99
	FillingsUpdate:  mu: -0.173600000  nElectrons: 330.067557
	SubspaceRotationAdjust: set factor to 0.00936
ElecMinimize: Iter:   2  G: -1744.847566703851044  |grad|_K:  2.902e-06  alpha:  3.296e-01  linmin:  2.105e-04  t[s]:  11140.25
	FillingsUpdate:  mu: -0.173600000  nElectrons: 330.075306
	SubspaceRotationAdjust: set factor to 0.0115
ElecMinimize: Iter:   3  G: -1744.847779464135556  |grad|_K:  2.079e-06  alpha:  5.403e-01  linmin: -9.106e-05  t[s]:  11522.27
	FillingsUpdate:  mu: -0.173600000  nElectrons: 330.080693
	SubspaceRotationAdjust: set factor to 0.0123
ElecMinimize: Iter:   4  G: -1744.847898157907821  |grad|_K:  1.710e-06  alpha:  5.863e-01  linmin: -3.505e-05  t[s]:  11908.02
	FillingsUpdate:  mu: -0.173600000  nElectrons: 330.074118
	SubspaceRotationAdjust: set factor to 0.011
ElecMinimize: Iter:   5  G: -1744.847961913476638  |grad|_K:  1.090e-06  alpha:  4.658e-01  linmin:  2.074e-05  t[s]:  12293.30
	FillingsUpdate:  mu: -0.173600000  nElectrons: 330.075882
	SubspaceRotationAdjust: set factor to 0.0122
ElecMinimize: Iter:   6  G: -1744.847989206519287  |grad|_K:  6.560e-07  alpha:  4.913e-01  linmin: -1.797e-05  t[s]:  12676.91
	FillingsUpdate:  mu: -0.173600000  nElectrons: 330.075903
	SubspaceRotationAdjust: set factor to 0.0146
ElecMinimize: Iter:   7  G: -1744.847997968377285  |grad|_K:  4.200e-07  alpha:  4.351e-01  linmin: -4.979e-07  t[s]:  13069.84
	FillingsUpdate:  mu: -0.173600000  nElectrons: 330.075002
	SubspaceRotationAdjust: set factor to 0.0181
ElecMinimize: Iter:   8  G: -1744.848002335011415  |grad|_K:  3.381e-07  alpha:  5.290e-01  linmin: -1.632e-05  t[s]:  13456.12
	FillingsUpdate:  mu: -0.173600000  nElectrons: 330.075777
	SubspaceRotationAdjust: set factor to 0.0212
ElecMinimize: Iter:   9  G: -1744.848005815196984  |grad|_K:  3.632e-07  alpha:  6.508e-01  linmin:  1.075e-05  t[s]:  13843.83
	FillingsUpdate:  mu: -0.173600000  nElectrons: 330.073617
	SubspaceRotationAdjust: set factor to 0.0216
ElecMinimize: Iter:  10  G: -1744.848010091475544  |grad|_K:  4.464e-07  alpha:  6.929e-01  linmin: -2.141e-06  t[s]:  14232.39
	FillingsUpdate:  mu: -0.173600000  nElectrons: 330.075241
	SubspaceRotationAdjust: set factor to 0.0186
ElecMinimize: Iter:  11  G: -1744.848014975350225  |grad|_K:  4.638e-07  alpha:  5.236e-01  linmin: -2.529e-06  t[s]:  14620.84
	FillingsUpdate:  mu: -0.173600000  nElectrons: 330.072482
	SubspaceRotationAdjust: set factor to 0.015
ElecMinimize: Iter:  12  G: -1744.848019377420769  |grad|_K:  3.885e-07  alpha:  4.372e-01  linmin:  2.385e-06  t[s]:  15002.61
	FillingsUpdate:  mu: -0.173600000  nElectrons: 330.073217
	SubspaceRotationAdjust: set factor to 0.0146
ElecMinimize: Iter:  13  G: -1744.848022568864280  |grad|_K:  2.888e-07  alpha:  4.520e-01  linmin:  3.656e-06  t[s]:  15386.77
	FillingsUpdate:  mu: -0.173600000  nElectrons: 330.072704
	SubspaceRotationAdjust: set factor to 0.0178
ElecMinimize: Iter:  14  G: -1744.848024596974483  |grad|_K:  2.112e-07  alpha:  5.196e-01  linmin: -1.723e-05  t[s]:  15769.81
	FillingsUpdate:  mu: -0.173600000  nElectrons: 330.072058
	SubspaceRotationAdjust: set factor to 0.021
ElecMinimize: Iter:  15  G: -1744.848025662001646  |grad|_K:  1.751e-07  alpha:  5.101e-01  linmin:  1.657e-05  t[s]:  16153.46
	FillingsUpdate:  mu: -0.173600000  nElectrons: 330.072690
	SubspaceRotationAdjust: set factor to 0.0211
ElecMinimize: Iter:  16  G: -1744.848026389690403  |grad|_K:  1.711e-07  alpha:  5.072e-01  linmin: -2.490e-05  t[s]:  16535.69
ElecMinimize: Converged (|Delta G|<1.743989e-06 for 2 iters).
Setting wave functions to eigenvectors of Hamiltonian

Electronic minimization # 3 changed total free energy by -7.685635e-05 at t[s]:  16551.96

---------------------- Fluid Minimization # 4 -----------------------
FluidMinimize: Iter:   0  G: -0.013166668782031  |grad|_K:  5.285e-05  alpha:  1.000e+00
FluidMinimize: Iter:   1  G: -0.013166687587741  |grad|_K:  5.284e-05  alpha:  3.479e-06  linmin: -1.103e-01  cgtest:  1.000e+00  t[s]:  16552.83
FluidMinimize: Encountered beta<0, resetting CG.
FluidMinimize: 	Predicted alpha/alphaT>3.000000, increasing alphaT to 1.043824e-05.
FluidMinimize: 	Predicted alpha/alphaT>3.000000, increasing alphaT to 3.131473e-05.
FluidMinimize: 	Predicted alpha/alphaT>3.000000, increasing alphaT to 9.394418e-05.
FluidMinimize: 	Predicted alpha/alphaT>3.000000, increasing alphaT to 2.818326e-04.
FluidMinimize: 	Predicted alpha/alphaT>3.000000, increasing alphaT to 8.454977e-04.
FluidMinimize: 	Predicted alpha/alphaT>3.000000, increasing alphaT to 2.536493e-03.
FluidMinimize: Iter:   2  G: -0.013218748956479  |grad|_K:  1.247e-05  alpha:  1.932e-02  linmin:  1.208e-03  cgtest: -2.154e-02  t[s]:  16554.57
FluidMinimize: 	Predicted alpha/alphaT>3.000000, increasing alphaT to 5.795252e-02.
FluidMinimize: Iter:   3  G: -0.013230459317052  |grad|_K:  1.771e-05  alpha:  7.798e-02  linmin: -2.817e-03  cgtest:  2.453e-02  t[s]:  16555.36
FluidMinimize: Iter:   4  G: -0.013233359864710  |grad|_K:  4.746e-06  alpha:  9.958e-03  linmin:  1.011e-02  cgtest: -1.977e-01  t[s]:  16555.90
FluidMinimize: 	Predicted alpha/alphaT>3.000000, increasing alphaT to 2.987523e-02.
FluidMinimize: Iter:   5  G: -0.013234663129328  |grad|_K:  5.882e-06  alpha:  6.476e-02  linmin: -1.017e-03  cgtest:  1.372e-01  t[s]:  16556.69
FluidMinimize: Iter:   6  G: -0.013236110935103  |grad|_K:  3.575e-06  alpha:  4.283e-02  linmin: -1.621e-05  cgtest: -1.305e-01  t[s]:  16557.26
FluidMinimize: Converged (|Delta G|<2.040775e-06 for 2 iters).

Fluid minimization # 4 changed total free energy by -6.944215e-05 at t[s]:  16557.56

-------------------- Electronic Minimization # 4 ---------------------
	FillingsUpdate:  mu: -0.173600000  nElectrons: 329.924789
ElecMinimize: Iter:   0  G: -1744.841415946898678  |grad|_K:  3.303e-05  alpha:  1.000e+00
	FillingsUpdate:  mu: -0.173600000  nElectrons: 330.097534
	SubspaceRotationAdjust: set factor to 0.00787
ElecMinimize: Iter:   1  G: -1744.847925851289574  |grad|_K:  3.701e-06  alpha:  1.413e-01  linmin:  1.019e-01  t[s]:  17107.84
	FillingsUpdate:  mu: -0.173600000  nElectrons: 330.081886
	SubspaceRotationAdjust: set factor to 0.00342
ElecMinimize: Iter:   2  G: -1744.848045515719605  |grad|_K:  1.092e-06  alpha:  2.033e-01  linmin:  6.654e-04  t[s]:  17489.58
ElecMinimize: 	Predicted alpha/alphaT>3.000000, increasing alphaT to 6.098816e-01.
	FillingsUpdate:  mu: -0.173600000  nElectrons: 330.086965
	SubspaceRotationAdjust: set factor to 0.0061
ElecMinimize: Iter:   3  G: -1744.848080830629669  |grad|_K:  7.017e-07  alpha:  6.336e-01  linmin: -1.435e-05  t[s]:  17964.15
	FillingsUpdate:  mu: -0.173600000  nElectrons: 330.090418
	SubspaceRotationAdjust: set factor to 0.0068
ElecMinimize: Iter:   4  G: -1744.848092789060502  |grad|_K:  4.379e-07  alpha:  5.189e-01  linmin: -4.736e-07  t[s]:  18352.50
	FillingsUpdate:  mu: -0.173600000  nElectrons: 330.091189
	SubspaceRotationAdjust: set factor to 0.00867
ElecMinimize: Iter:   5  G: -1744.848101090909722  |grad|_K:  5.168e-07  alpha:  9.250e-01  linmin:  4.862e-06  t[s]:  18738.78
	FillingsUpdate:  mu: -0.173600000  nElectrons: 330.089771
	SubspaceRotationAdjust: set factor to 0.00983
ElecMinimize: Iter:   6  G: -1744.848111669155060  |grad|_K:  5.934e-07  alpha:  8.465e-01  linmin:  1.068e-05  t[s]:  19124.95
	FillingsUpdate:  mu: -0.173600000  nElectrons: 330.089369
	SubspaceRotationAdjust: set factor to 0.0109
ElecMinimize: Iter:   7  G: -1744.848126404415780  |grad|_K:  6.204e-07  alpha:  8.945e-01  linmin:  1.864e-05  t[s]:  19508.62
	FillingsUpdate:  mu: -0.173600000  nElectrons: 330.090593
	SubspaceRotationAdjust: set factor to 0.0117
ElecMinimize: Iter:   8  G: -1744.848136714797874  |grad|_K:  5.052e-07  alpha:  5.727e-01  linmin:  1.624e-07  t[s]:  19892.47
	FillingsUpdate:  mu: -0.173600000  nElectrons: 330.089816
	SubspaceRotationAdjust: set factor to 0.0143
ElecMinimize: Iter:   9  G: -1744.848143137591933  |grad|_K:  4.094e-07  alpha:  5.377e-01  linmin:  1.155e-05  t[s]:  20278.20
	FillingsUpdate:  mu: -0.173600000  nElectrons: 330.089047
	SubspaceRotationAdjust: set factor to 0.0175
ElecMinimize: Iter:  10  G: -1744.848147300867595  |grad|_K:  3.403e-07  alpha:  5.308e-01  linmin:  2.013e-05  t[s]:  20660.47
	FillingsUpdate:  mu: -0.173600000  nElectrons: 330.089765
	SubspaceRotationAdjust: set factor to 0.0201
ElecMinimize: Iter:  11  G: -1744.848150422298204  |grad|_K:  2.918e-07  alpha:  5.762e-01  linmin: -9.054e-06  t[s]:  21046.65
	FillingsUpdate:  mu: -0.173600000  nElectrons: 330.088876
	SubspaceRotationAdjust: set factor to 0.0204
ElecMinimize: Iter:  12  G: -1744.848152661853192  |grad|_K:  2.530e-07  alpha:  5.618e-01  linmin: -6.776e-06  t[s]:  21430.21
	FillingsUpdate:  mu: -0.173600000  nElectrons: 330.090246
	SubspaceRotationAdjust: set factor to 0.0175
ElecMinimize: Iter:  13  G: -1744.848153870090300  |grad|_K:  2.117e-07  alpha:  4.034e-01  linmin: -2.990e-06  t[s]:  21821.74
	FillingsUpdate:  mu: -0.173600000  nElectrons: 330.089498
	SubspaceRotationAdjust: set factor to 0.0169
ElecMinimize: Iter:  14  G: -1744.848154784826875  |grad|_K:  1.649e-07  alpha:  4.360e-01  linmin:  1.309e-05  t[s]:  22205.35
ElecMinimize: Converged (|Delta G|<2.040775e-06 for 2 iters).
Setting wave functions to eigenvectors of Hamiltonian

Electronic minimization # 4 changed total free energy by -5.895298e-05 at t[s]:  22222.49

---------------------- Fluid Minimization # 5 -----------------------
FluidMinimize: Iter:   0  G: -0.016269901842414  |grad|_K:  3.907e-05  alpha:  1.000e+00
FluidMinimize: Iter:   1  G: -0.016269957994304  |grad|_K:  3.902e-05  alpha:  1.902e-05  linmin: -1.133e-01  cgtest:  1.000e+00  t[s]:  22223.33
FluidMinimize: Encountered beta<0, resetting CG.
FluidMinimize: 	Predicted alpha/alphaT>3.000000, increasing alphaT to 5.705853e-05.
FluidMinimize: 	Predicted alpha/alphaT>3.000000, increasing alphaT to 1.711756e-04.
FluidMinimize: 	Predicted alpha/alphaT>3.000000, increasing alphaT to 5.135267e-04.
FluidMinimize: 	Predicted alpha/alphaT>3.000000, increasing alphaT to 1.540580e-03.
FluidMinimize: 	Predicted alpha/alphaT>3.000000, increasing alphaT to 4.621741e-03.
FluidMinimize: 	Predicted alpha/alphaT>3.000000, increasing alphaT to 1.386522e-02.
FluidMinimize: Iter:   2  G: -0.016293345843879  |grad|_K:  1.680e-05  alpha:  1.616e-02  linmin:  6.738e-03  cgtest: -7.120e-02  t[s]:  22225.06
FluidMinimize: Iter:   3  G: -0.016295869346112  |grad|_K:  9.789e-06  alpha:  9.556e-03  linmin: -9.124e-05  cgtest:  5.867e-02  t[s]:  22225.59
FluidMinimize: 	Predicted alpha/alphaT>3.000000, increasing alphaT to 2.866681e-02.
FluidMinimize: Iter:   4  G: -0.016303131798056  |grad|_K:  6.031e-06  alpha:  7.822e-02  linmin: -1.674e-04  cgtest: -1.571e-01  t[s]:  22226.38
FluidMinimize: Iter:   5  G: -0.016304288048573  |grad|_K:  6.538e-06  alpha:  3.265e-02  linmin: -4.888e-04  cgtest:  2.421e-03  t[s]:  22226.96
FluidMinimize: Iter:   6  G: -0.016305188885844  |grad|_K:  8.244e-06  alpha:  2.173e-02  linmin: -4.671e-07  cgtest:  1.296e-03  t[s]:  22227.52
FluidMinimize: Iter:   7  G: -0.016307473478238  |grad|_K:  3.934e-06  alpha:  3.477e-02  linmin:  2.983e-04  cgtest: -7.137e-02  t[s]:  22228.10
FluidMinimize: 	Predicted alpha/alphaT>3.000000, increasing alphaT to 1.043212e-01.
FluidMinimize: Iter:   8  G: -0.016309041953854  |grad|_K:  5.181e-06  alpha:  1.050e-01  linmin:  8.482e-04  cgtest: -8.898e-03  t[s]:  22228.87
FluidMinimize: Iter:   9  G: -0.016309645699489  |grad|_K:  6.225e-06  alpha:  2.451e-02  linmin:  2.325e-03  cgtest: -3.055e-02  t[s]:  22229.40
FluidMinimize: Iter:  10  G: -0.016310415709062  |grad|_K:  5.750e-06  alpha:  2.135e-02  linmin: -1.036e-04  cgtest:  7.976e-02  t[s]:  22229.93
FluidMinimize: 	Predicted alpha/alphaT>3.000000, increasing alphaT to 6.405925e-02.
FluidMinimize: Iter:  11  G: -0.016312468230999  |grad|_K:  3.954e-06  alpha:  6.404e-02  linmin:  6.517e-04  cgtest: -1.462e-01  t[s]:  22230.72
FluidMinimize: Iter:  12  G: -0.016313002332990  |grad|_K:  4.827e-06  alpha:  3.531e-02  linmin: -1.213e-04  cgtest:  1.150e-02  t[s]:  22231.26
FluidMinimize: Iter:  13  G: -0.016313406676356  |grad|_K:  4.795e-06  alpha:  1.813e-02  linmin:  4.273e-04  cgtest: -2.096e-02  t[s]:  22231.81
FluidMinimize: Converged (|Delta G|<6.944215e-07 for 2 iters).

Fluid minimization # 5 changed total free energy by -4.350483e-05 at t[s]:  22232.13

-------------------- Electronic Minimization # 5 ---------------------
	FillingsUpdate:  mu: -0.173600000  nElectrons: 330.211171
ElecMinimize: Iter:   0  G: -1744.845496288806544  |grad|_K:  1.826e-05  alpha:  1.000e+00
	FillingsUpdate:  mu: -0.173600000  nElectrons: 330.117614
	SubspaceRotationAdjust: set factor to 0.0153
ElecMinimize: Iter:   1  G: -1744.848105447528269  |grad|_K:  2.290e-06  alpha:  1.556e-01  linmin: -8.914e-02  t[s]:  22778.51
	FillingsUpdate:  mu: -0.173600000  nElectrons: 330.102513
	SubspaceRotationAdjust: set factor to 0.011
ElecMinimize: Iter:   2  G: -1744.848176603157981  |grad|_K:  1.326e-06  alpha:  2.714e-01  linmin:  7.851e-04  t[s]:  23162.56
	FillingsUpdate:  mu: -0.173600000  nElectrons: 330.105183
	SubspaceRotationAdjust: set factor to 0.0167
ElecMinimize: Iter:   3  G: -1744.848201049808040  |grad|_K:  6.808e-07  alpha:  2.979e-01  linmin: -3.763e-05  t[s]:  23546.98
	FillingsUpdate:  mu: -0.173600000  nElectrons: 330.106950
	SubspaceRotationAdjust: set factor to 0.018
ElecMinimize: Iter:   4  G: -1744.848211281796011  |grad|_K:  5.661e-07  alpha:  4.718e-01  linmin:  1.287e-05  t[s]:  23929.51
	FillingsUpdate:  mu: -0.173600000  nElectrons: 330.104139
	SubspaceRotationAdjust: set factor to 0.0171
ElecMinimize: Iter:   5  G: -1744.848217492140975  |grad|_K:  5.325e-07  alpha:  4.141e-01  linmin:  3.027e-05  t[s]:  24313.50
	FillingsUpdate:  mu: -0.173600000  nElectrons: 330.105601
	SubspaceRotationAdjust: set factor to 0.0186
ElecMinimize: Iter:   6  G: -1744.848223919202155  |grad|_K:  4.595e-07  alpha:  4.844e-01  linmin: -1.697e-05  t[s]:  24698.29
	FillingsUpdate:  mu: -0.173600000  nElectrons: 330.106015
	SubspaceRotationAdjust: set factor to 0.0217
ElecMinimize: Iter:   7  G: -1744.848228791471911  |grad|_K:  3.723e-07  alpha:  4.930e-01  linmin: -9.958e-06  t[s]:  25079.68
	FillingsUpdate:  mu: -0.173600000  nElectrons: 330.104126
	SubspaceRotationAdjust: set factor to 0.0189
ElecMinimize: Iter:   8  G: -1744.848231519656338  |grad|_K:  3.718e-07  alpha:  4.207e-01  linmin:  7.211e-06  t[s]:  25468.73
	FillingsUpdate:  mu: -0.173600000  nElectrons: 330.105775
	SubspaceRotationAdjust: set factor to 0.0177
ElecMinimize: Iter:   9  G: -1744.848233676410700  |grad|_K:  2.620e-07  alpha:  3.335e-01  linmin:  6.403e-06  t[s]:  25853.30
	FillingsUpdate:  mu: -0.173600000  nElectrons: 330.105675
	SubspaceRotationAdjust: set factor to 0.0224
ElecMinimize: Iter:  10  G: -1744.848235572683279  |grad|_K:  2.280e-07  alpha:  5.912e-01  linmin:  6.908e-05  t[s]:  26233.97
	FillingsUpdate:  mu: -0.173600000  nElectrons: 330.104740
	SubspaceRotationAdjust: set factor to 0.0222
ElecMinimize: Iter:  11  G: -1744.848236798517974  |grad|_K:  2.208e-07  alpha:  5.043e-01  linmin: -6.058e-06  t[s]:  26618.78
	FillingsUpdate:  mu: -0.173600000  nElectrons: 330.105747
	SubspaceRotationAdjust: set factor to 0.0167
ElecMinimize: Iter:  12  G: -1744.848237486789685  |grad|_K:  1.745e-07  alpha:  3.022e-01  linmin:  1.912e-07  t[s]:  26999.78
	FillingsUpdate:  mu: -0.173600000  nElectrons: 330.105075
	SubspaceRotationAdjust: set factor to 0.0167
ElecMinimize: Iter:  13  G: -1744.848238069196896  |grad|_K:  1.189e-07  alpha:  4.095e-01  linmin:  2.298e-04  t[s]:  27385.61
ElecMinimize: Converged (|Delta G|<6.944215e-07 for 2 iters).
Setting wave functions to eigenvectors of Hamiltonian

Electronic minimization # 5 changed total free energy by -3.977953e-05 at t[s]:  27403.61

---------------------- Fluid Minimization # 6 -----------------------
FluidMinimize: Iter:   0  G: -0.019163316756461  |grad|_K:  4.282e-05  alpha:  1.000e+00
FluidMinimize: Iter:   1  G: -0.019163373176984  |grad|_K:  4.277e-05  alpha:  1.591e-05  linmin: -1.190e-01  cgtest:  1.000e+00  t[s]:  27404.47
FluidMinimize: Encountered beta<0, resetting CG.
FluidMinimize: 	Predicted alpha/alphaT>3.000000, increasing alphaT to 4.772921e-05.
FluidMinimize: 	Predicted alpha/alphaT>3.000000, increasing alphaT to 1.431876e-04.
FluidMinimize: 	Predicted alpha/alphaT>3.000000, increasing alphaT to 4.295629e-04.
FluidMinimize: 	Predicted alpha/alphaT>3.000000, increasing alphaT to 1.288689e-03.
FluidMinimize: 	Predicted alpha/alphaT>3.000000, increasing alphaT to 3.866066e-03.
FluidMinimize: 	Predicted alpha/alphaT>3.000000, increasing alphaT to 1.159820e-02.
FluidMinimize: Iter:   2  G: -0.019189573742249  |grad|_K:  1.509e-05  alpha:  1.496e-02  linmin:  4.457e-03  cgtest: -5.212e-02  t[s]:  27406.21
FluidMinimize: Iter:   3  G: -0.019191617663412  |grad|_K:  1.040e-05  alpha:  9.466e-03  linmin: -1.629e-05  cgtest:  2.863e-02  t[s]:  27406.75
FluidMinimize: 	Predicted alpha/alphaT>3.000000, increasing alphaT to 2.839873e-02.
FluidMinimize: Iter:   4  G: -0.019198363400316  |grad|_K:  3.548e-06  alpha:  6.415e-02  linmin: -2.816e-03  cgtest: -1.777e-01  t[s]:  27407.55
FluidMinimize: Iter:   5  G: -0.019198989077464  |grad|_K:  5.016e-06  alpha:  5.074e-02  linmin:  2.861e-05  cgtest: -6.064e-03  t[s]:  27408.07
FluidMinimize: Iter:   6  G: -0.019199486169593  |grad|_K:  5.225e-06  alpha:  2.034e-02  linmin: -5.135e-04  cgtest:  1.043e-02  t[s]:  27408.61
FluidMinimize: Iter:   7  G: -0.019199876389812  |grad|_K:  2.110e-06  alpha:  1.479e-02  linmin: -1.419e-04  cgtest: -1.748e-03  t[s]:  27409.14
FluidMinimize: 	Predicted alpha/alphaT>3.000000, increasing alphaT to 4.436463e-02.
FluidMinimize: 	Predicted alpha/alphaT>3.000000, increasing alphaT to 1.330939e-01.
FluidMinimize: Iter:   8  G: -0.019200712337746  |grad|_K:  3.715e-06  alpha:  1.936e-01  linmin: -3.003e-04  cgtest: -2.480e-03  t[s]:  27410.15
FluidMinimize: Iter:   9  G: -0.019200987953529  |grad|_K:  5.481e-06  alpha:  2.133e-02  linmin:  2.137e-03  cgtest: -2.501e-02  t[s]:  27410.69
FluidMinimize: 	Predicted alpha/alphaT>3.000000, increasing alphaT to 6.397949e-02.
FluidMinimize: Iter:  10  G: -0.019202952198428  |grad|_K:  5.545e-06  alpha:  6.982e-02  linmin: -6.194e-04  cgtest:  1.528e-01  t[s]:  27411.47
FluidMinimize: Iter:  11  G: -0.019203764639599  |grad|_K:  3.957e-06  alpha:  2.710e-02  linmin:  1.183e-04  cgtest: -7.079e-03  t[s]:  27412.00
FluidMinimize: Iter:  12  G: -0.019204382223206  |grad|_K:  7.838e-06  alpha:  4.071e-02  linmin: -5.393e-04  cgtest:  9.729e-03  t[s]:  27412.55
FluidMinimize: Iter:  13  G: -0.019205715395661  |grad|_K:  3.171e-06  alpha:  2.236e-02  linmin:  9.420e-05  cgtest: -4.055e-02  t[s]:  27413.09
FluidMinimize: 	Predicted alpha/alphaT>3.000000, increasing alphaT to 6.708010e-02.
FluidMinimize: Iter:  14  G: -0.019206505028801  |grad|_K:  4.206e-06  alpha:  8.125e-02  linmin: -5.172e-05  cgtest:  9.830e-03  t[s]:  27413.87
FluidMinimize: Iter:  15  G: -0.019207049636609  |grad|_K:  3.468e-06  alpha:  3.228e-02  linmin:  6.693e-04  cgtest: -4.160e-03  t[s]:  27414.41
FluidMinimize: Iter:  16  G: -0.019207185116175  |grad|_K:  2.769e-06  alpha:  1.176e-02  linmin:  1.172e-05  cgtest:  1.303e-02  t[s]:  27414.96
FluidMinimize: 	Predicted alpha/alphaT>3.000000, increasing alphaT to 3.527570e-02.
FluidMinimize: 	Predicted alpha/alphaT>3.000000, increasing alphaT to 1.058271e-01.
FluidMinimize: Iter:  17  G: -0.019208068476357  |grad|_K:  3.236e-06  alpha:  1.190e-01  linmin: -1.319e-04  cgtest: -4.811e-02  t[s]:  27415.97
FluidMinimize: Iter:  18  G: -0.019208518989665  |grad|_K:  3.135e-06  alpha:  4.391e-02  linmin: -6.207e-04  cgtest: -4.863e-03  t[s]:  27416.52
FluidMinimize: Iter:  19  G: -0.019209122626173  |grad|_K:  4.161e-06  alpha:  6.292e-02  linmin: -7.201e-05  cgtest: -5.445e-03  t[s]:  27417.05
FluidMinimize: Iter:  20  G: -0.019209301856218  |grad|_K:  2.602e-06  alpha:  1.098e-02  linmin:  1.799e-03  cgtest: -4.321e-02  t[s]:  27417.60
FluidMinimize: 	Predicted alpha/alphaT>3.000000, increasing alphaT to 3.294226e-02.
FluidMinimize: 	Predicted alpha/alphaT>3.000000, increasing alphaT to 9.882678e-02.
FluidMinimize: Iter:  21  G: -0.019210188994916  |grad|_K:  4.507e-06  alpha:  1.392e-01  linmin:  3.373e-04  cgtest:  7.578e-02  t[s]:  27418.61
FluidMinimize: Iter:  22  G: -0.019210972604291  |grad|_K:  4.000e-06  alpha:  4.082e-02  linmin:  1.348e-03  cgtest: -5.775e-02  t[s]:  27419.16
FluidMinimize: Iter:  23  G: -0.019211587134160  |grad|_K:  6.962e-06  alpha:  4.035e-02  linmin: -5.385e-04  cgtest:  4.700e-03  t[s]:  27419.70
FluidMinimize: Iter:  24  G: -0.019212578441138  |grad|_K:  4.089e-06  alpha:  2.029e-02  linmin: -1.084e-03  cgtest: -2.969e-02  t[s]:  27420.25
FluidMinimize: 	Predicted alpha/alphaT>3.000000, increasing alphaT to 6.086474e-02.
FluidMinimize: Iter:  25  G: -0.019214449208393  |grad|_K:  8.104e-06  alpha:  1.124e-01  linmin: -2.974e-04  cgtest:  5.463e-02  t[s]:  27421.05
FluidMinimize: Iter:  26  G: -0.019214709488643  |grad|_K:  7.801e-06  alpha:  2.084e-03  linmin: -3.919e-02  cgtest:  9.977e-01  t[s]:  27421.60
FluidMinimize: Encountered beta<0, resetting CG.
FluidMinimize: 	Predicted alpha/alphaT>3.000000, increasing alphaT to 6.253277e-03.
FluidMinimize: 	Predicted alpha/alphaT>3.000000, increasing alphaT to 1.875983e-02.
FluidMinimize: Iter:  27  G: -0.019215981261605  |grad|_K:  5.995e-06  alpha:  2.161e-02  linmin:  3.562e-04  cgtest: -3.650e-03  t[s]:  27422.63
FluidMinimize: Iter:  28  G: -0.019216953018236  |grad|_K:  7.982e-06  alpha:  2.798e-02  linmin: -5.925e-04  cgtest:  1.330e-02  t[s]:  27423.19
FluidMinimize: Iter:  29  G: -0.019218420175069  |grad|_K:  3.191e-06  alpha:  2.372e-02  linmin: -1.721e-04  cgtest: -3.191e-02  t[s]:  27423.72
FluidMinimize: 	Predicted alpha/alphaT>3.000000, increasing alphaT to 7.115401e-02.
FluidMinimize: 	Predicted alpha/alphaT>3.000000, increasing alphaT to 2.134620e-01.
FluidMinimize: Iter:  30  G: -0.019222395618073  |grad|_K:  5.738e-06  alpha:  4.131e-01  linmin:  6.991e-03  cgtest: -5.938e-02  t[s]:  27424.76
FluidMinimize: Iter:  31  G: -0.019222907768524  |grad|_K:  5.217e-06  alpha:  1.303e-02  linmin: -1.855e-02  cgtest:  3.923e-01  t[s]:  27425.30
FluidMinimize: 	Predicted alpha/alphaT>3.000000, increasing alphaT to 3.907990e-02.
FluidMinimize: Iter:  32  G: -0.019225294090417  |grad|_K:  1.318e-05  alpha:  7.801e-02  linmin:  8.590e-04  cgtest: -2.964e-01  t[s]:  27426.10
FluidMinimize: Iter:  33  G: -0.019226722555760  |grad|_K:  1.169e-05  alpha:  4.835e-03  linmin: -7.818e-02  cgtest:  9.864e-01  t[s]:  27426.64
FluidMinimize: Encountered beta<0, resetting CG.
FluidMinimize: Iter:  34  G: -0.019227857410811  |grad|_K:  5.248e-06  alpha:  8.571e-03  linmin: -5.934e-04  cgtest:  8.980e-03  t[s]:  27427.20
FluidMinimize: Iter:  35  G: -0.019228450854351  |grad|_K:  4.543e-06  alpha:  2.220e-02  linmin:  1.555e-04  cgtest: -1.989e-03  t[s]:  27427.75
FluidMinimize: 	Predicted alpha/alphaT>3.000000, increasing alphaT to 6.660406e-02.
FluidMinimize: Iter:  36  G: -0.019230816456133  |grad|_K:  5.240e-06  alpha:  1.191e-01  linmin:  1.117e-03  cgtest:  5.429e-02  t[s]:  27428.55
FluidMinimize: Iter:  37  G: -0.019235258932460  |grad|_K:  7.562e-06  alpha:  1.747e-01  linmin:  1.353e-02  cgtest:  3.874e-02  t[s]:  27429.08
FluidMinimize: Iter:  38  G: -0.019235691973968  |grad|_K:  4.721e-06  alpha:  6.685e-03  linmin: -2.122e-02  cgtest:  6.425e-01  t[s]:  27429.64
FluidMinimize: Encountered beta<0, resetting CG.
FluidMinimize: 	Predicted alpha/alphaT>3.000000, increasing alphaT to 2.005606e-02.
FluidMinimize: 	Predicted alpha/alphaT>3.000000, increasing alphaT to 6.016817e-02.
FluidMinimize: Iter:  39  G: -0.019238135703448  |grad|_K:  8.091e-06  alpha:  1.124e-01  linmin: -2.842e-03  cgtest:  1.007e-02  t[s]:  27430.66
FluidMinimize: Iter:  40  G: -0.019239759101109  |grad|_K:  6.318e-06  alpha:  2.724e-02  linmin:  1.245e-02  cgtest: -1.575e-01  t[s]:  27431.21
FluidMinimize: Iter:  41  G: -0.019240203117748  |grad|_K:  5.261e-06  alpha:  1.234e-02  linmin: -3.274e-04  cgtest:  1.201e-01  t[s]:  27431.75
FluidMinimize: 	Predicted alpha/alphaT>3.000000, increasing alphaT to 3.700882e-02.
FluidMinimize: Iter:  42  G: -0.019242093651709  |grad|_K:  6.651e-06  alpha:  7.231e-02  linmin:  7.688e-03  cgtest: -1.849e-01  t[s]:  27432.55
FluidMinimize: Iter:  43  G: -0.019243292121902  |grad|_K:  6.851e-06  alpha:  2.875e-02  linmin: -2.295e-03  cgtest:  1.996e-01  t[s]:  27433.09
FluidMinimize: Iter:  44  G: -0.019244004749971  |grad|_K:  6.844e-06  alpha:  1.520e-02  linmin: -3.739e-04  cgtest: -4.150e-02  t[s]:  27433.64
FluidMinimize: 	Predicted alpha/alphaT>3.000000, increasing alphaT to 4.560057e-02.
FluidMinimize: Iter:  45  G: -0.019247653631597  |grad|_K:  1.228e-05  alpha:  1.243e-01  linmin:  5.729e-02  cgtest:  3.523e-01  t[s]:  27434.44
FluidMinimize: Iter:  46  G: -0.019248176333492  |grad|_K:  1.211e-05  alpha:  6.532e-03  linmin: -1.678e-02  cgtest:  9.693e-01  t[s]:  27434.98
FluidMinimize: 	Predicted alpha/alphaT>3.000000, increasing alphaT to 1.959619e-02.
FluidMinimize: Iter:  47  G: -0.019253039709257  |grad|_K:  5.299e-06  alpha:  3.213e-02  linmin: -3.402e-02  cgtest:  3.108e-01  t[s]:  27435.76
FluidMinimize: Iter:  48  G: -0.019254640683266  |grad|_K:  9.277e-06  alpha:  5.674e-02  linmin:  5.418e-04  cgtest: -2.254e-02  t[s]:  27436.31
FluidMinimize: Iter:  49  G: -0.019255866973578  |grad|_K:  6.359e-06  alpha:  1.444e-02  linmin: -2.596e-03  cgtest:  9.127e-02  t[s]:  27436.85
FluidMinimize: Iter:  50  G: -0.019256590334417  |grad|_K:  3.907e-06  alpha:  1.814e-02  linmin: -2.992e-04  cgtest: -5.250e-02  t[s]:  27437.39
FluidMinimize: 	Predicted alpha/alphaT>3.000000, increasing alphaT to 5.442906e-02.
FluidMinimize: Iter:  51  G: -0.019258750889535  |grad|_K:  7.125e-06  alpha:  1.416e-01  linmin: -1.741e-02  cgtest:  1.255e-02  t[s]:  27438.16
FluidMinimize: Iter:  52  G: -0.019259348471735  |grad|_K:  4.956e-06  alpha:  1.106e-02  linmin: -5.626e-03  cgtest: -2.213e-02  t[s]:  27438.70
FluidMinimize: 	Predicted alpha/alphaT>3.000000, increasing alphaT to 3.317471e-02.
FluidMinimize: Iter:  53  G: -0.019260679402722  |grad|_K:  7.253e-06  alpha:  5.759e-02  linmin:  1.437e-02  cgtest: -1.360e-02  t[s]:  27439.47
FluidMinimize: Iter:  54  G: -0.019261637945947  |grad|_K:  6.539e-06  alpha:  2.053e-02  linmin: -4.586e-03  cgtest:  6.935e-01  t[s]:  27440.01
FluidMinimize: Iter:  55  G: -0.019262981094550  |grad|_K:  6.854e-06  alpha:  3.138e-02  linmin: -7.354e-03  cgtest:  1.290e-02  t[s]:  27440.53
FluidMinimize: Iter:  56  G: -0.019264164293123  |grad|_K:  7.374e-06  alpha:  2.509e-02  linmin: -1.179e-03  cgtest: -1.383e-01  t[s]:  27441.07
FluidMinimize: Iter:  57  G: -0.019264985926931  |grad|_K:  6.108e-06  alpha:  1.545e-02  linmin: -4.766e-05  cgtest:  2.744e-02  t[s]:  27441.61
FluidMinimize: 	Predicted alpha/alphaT>3.000000, increasing alphaT to 4.634328e-02.
FluidMinimize: Iter:  58  G: -0.019268127647376  |grad|_K:  7.068e-06  alpha:  8.900e-02  linmin:  7.859e-03  cgtest:  8.867e-02  t[s]:  27442.40
FluidMinimize: Iter:  59  G: -0.019268564951614  |grad|_K:  5.111e-06  alpha:  9.466e-03  linmin: -8.126e-05  cgtest:  7.812e-02  t[s]:  27442.93
FluidMinimize: 	Predicted alpha/alphaT>3.000000, increasing alphaT to 2.839674e-02.
FluidMinimize: Iter:  60  G: -0.019270583643146  |grad|_K:  8.579e-06  alpha:  8.180e-02  linmin:  5.149e-03  cgtest: -1.208e-01  t[s]:  27443.72
FluidMinimize: Iter:  61  G: -0.019272453158752  |grad|_K:  5.042e-06  alpha:  2.872e-02  linmin:  2.818e-03  cgtest:  1.387e-01  t[s]:  27444.25
FluidMinimize: 	Predicted alpha/alphaT>3.000000, increasing alphaT to 8.615179e-02.
FluidMinimize: Iter:  62  G: -0.019274871974143  |grad|_K:  1.319e-05  alpha:  1.018e-01  linmin:  6.742e-03  cgtest: -8.092e-03  t[s]:  27445.04
FluidMinimize: Iter:  63  G: -0.019276334685026  |grad|_K:  9.007e-06  alpha:  6.213e-03  linmin: -4.785e-02  cgtest:  8.710e-01  t[s]:  27445.58
FluidMinimize: Encountered beta<0, resetting CG.
FluidMinimize: Iter:  64  G: -0.019277360290003  |grad|_K:  7.285e-06  alpha:  1.295e-02  linmin: -1.741e-03  cgtest:  2.029e-02  t[s]:  27446.15
FluidMinimize: Iter:  65  G: -0.019278142323533  |grad|_K:  3.842e-06  alpha:  1.498e-02  linmin: -3.648e-04  cgtest: -6.619e-02  t[s]:  27446.68
FluidMinimize: Iter:  66  G: -0.019278601263575  |grad|_K:  3.778e-06  alpha:  3.137e-02  linmin: -5.162e-03  cgtest:  1.106e-02  t[s]:  27447.23
FluidMinimize: 	Predicted alpha/alphaT>3.000000, increasing alphaT to 9.411711e-02.
FluidMinimize: Iter:  67  G: -0.019280241018410  |grad|_K:  7.677e-06  alpha:  1.148e-01  linmin:  2.356e-03  cgtest: -9.939e-02  t[s]:  27448.00
FluidMinimize: Iter:  68  G: -0.019280764010453  |grad|_K:  3.815e-06  alpha:  9.089e-03  linmin: -2.479e-03  cgtest:  1.283e-01  t[s]:  27448.54
FluidMinimize: 	Predicted alpha/alphaT>3.000000, increasing alphaT to 2.726650e-02.
FluidMinimize: 	Predicted alpha/alphaT>3.000000, increasing alphaT to 8.179949e-02.
FluidMinimize: Iter:  69  G: -0.019282067550792  |grad|_K:  7.329e-06  alpha:  9.102e-02  linmin:  4.085e-04  cgtest: -4.161e-02  t[s]:  27449.56
FluidMinimize: Iter:  70  G: -0.019283767731815  |grad|_K:  5.203e-06  alpha:  2.845e-02  linmin: -1.403e-02  cgtest:  2.780e-01  t[s]:  27450.10
FluidMinimize: Iter:  71  G: -0.019284373015792  |grad|_K:  7.294e-06  alpha:  2.156e-02  linmin: -2.850e-04  cgtest: -6.825e-02  t[s]:  27450.63
FluidMinimize: Iter:  72  G: -0.019285933032147  |grad|_K:  6.726e-06  alpha:  2.983e-02  linmin: -5.066e-03  cgtest:  1.442e-01  t[s]:  27451.18
FluidMinimize: Iter:  73  G: -0.019288117519268  |grad|_K:  9.732e-06  alpha:  4.815e-02  linmin: -2.269e-03  cgtest: -7.664e-02  t[s]:  27451.72
FluidMinimize: Iter:  74  G: -0.019290154146895  |grad|_K:  9.603e-06  alpha:  2.036e-02  linmin: -6.804e-03  cgtest:  7.791e-02  t[s]:  27452.27
FluidMinimize: Iter:  75  G: -0.019291156754601  |grad|_K:  4.383e-06  alpha:  1.022e-02  linmin: -2.560e-03  cgtest:  1.054e-01  t[s]:  27452.80
FluidMinimize: 	Predicted alpha/alphaT>3.000000, increasing alphaT to 3.065432e-02.
FluidMinimize: 	Predicted alpha/alphaT>3.000000, increasing alphaT to 9.196296e-02.
FluidMinimize: Iter:  76  G: -0.019293200373017  |grad|_K:  6.880e-06  alpha:  1.073e-01  linmin: -2.354e-03  cgtest:  4.241e-02  t[s]:  27453.83
FluidMinimize: Iter:  77  G: -0.019293892298286  |grad|_K:  6.721e-06  alpha:  1.555e-02  linmin:  4.566e-03  cgtest: -9.131e-02  t[s]:  27454.37
FluidMinimize: Iter:  78  G: -0.019294833252526  |grad|_K:  6.727e-06  alpha:  2.263e-02  linmin:  1.475e-03  cgtest:  1.031e-01  t[s]:  27454.92
FluidMinimize: Iter:  79  G: -0.019295958954125  |grad|_K:  6.366e-06  alpha:  2.652e-02  linmin:  9.757e-03  cgtest:  2.158e-02  t[s]:  27455.45
FluidMinimize: Iter:  80  G: -0.019296566895203  |grad|_K:  8.179e-06  alpha:  1.681e-02  linmin: -4.975e-06  cgtest:  1.083e-01  t[s]:  27456.00
FluidMinimize: 	Predicted alpha/alphaT>3.000000, increasing alphaT to 5.044117e-02.
FluidMinimize: Iter:  81  G: -0.019300095210325  |grad|_K:  4.379e-06  alpha:  5.437e-02  linmin: -3.693e-03  cgtest: -6.430e-01  t[s]:  27456.77
FluidMinimize: Iter:  82  G: -0.019300488132962  |grad|_K:  4.452e-06  alpha:  1.976e-02  linmin: -1.248e-03  cgtest:  1.593e-02  t[s]:  27457.32
FluidMinimize: Iter:  83  G: -0.019301030467686  |grad|_K:  6.835e-06  alpha:  2.814e-02  linmin:  2.544e-03  cgtest:  4.583e-02  t[s]:  27457.84
FluidMinimize: Iter:  84  G: -0.019302347911219  |grad|_K:  5.485e-06  alpha:  3.059e-02  linmin:  2.116e-03  cgtest:  6.154e-01  t[s]:  27458.39
FluidMinimize: Iter:  85  G: -0.019303313398025  |grad|_K:  5.786e-06  alpha:  3.324e-02  linmin: -4.540e-03  cgtest:  2.081e-02  t[s]:  27458.93
FluidMinimize: Iter:  86  G: -0.019304169654926  |grad|_K:  6.309e-06  alpha:  2.552e-02  linmin: -1.018e-04  cgtest: -1.142e-01  t[s]:  27459.47
FluidMinimize: Iter:  87  G: -0.019304723763200  |grad|_K:  5.663e-06  alpha:  1.447e-02  linmin:  2.095e-04  cgtest:  2.188e-02  t[s]:  27460.02
FluidMinimize: 	Predicted alpha/alphaT>3.000000, increasing alphaT to 4.339530e-02.
FluidMinimize: Iter:  88  G: -0.019306226821937  |grad|_K:  4.721e-06  alpha:  4.856e-02  linmin:  3.711e-04  cgtest: -2.114e-02  t[s]:  27460.81
FluidMinimize: Iter:  89  G: -0.019306678547629  |grad|_K:  7.217e-06  alpha:  2.081e-02  linmin: -4.493e-04  cgtest:  2.278e-02  t[s]:  27461.34
FluidMinimize: Iter:  90  G: -0.019308974100964  |grad|_K:  8.896e-06  alpha:  4.477e-02  linmin: -2.042e-03  cgtest:  7.028e-02  t[s]:  27461.89
FluidMinimize: Iter:  91  G: -0.019310888561155  |grad|_K:  6.449e-06  alpha:  2.627e-02  linmin:  2.473e-03  cgtest: -2.403e-01  t[s]:  27462.43
FluidMinimize: Iter:  92  G: -0.019311350107931  |grad|_K:  5.806e-06  alpha:  1.150e-02  linmin: -7.996e-04  cgtest:  4.001e-02  t[s]:  27462.98
FluidMinimize: Iter:  93  G: -0.019312401518632  |grad|_K:  6.625e-06  alpha:  3.399e-02  linmin:  7.088e-03  cgtest: -2.643e-02  t[s]:  27463.51
FluidMinimize: Iter:  94  G: -0.019313264948046  |grad|_K:  9.005e-06  alpha:  2.305e-02  linmin: -4.379e-05  cgtest:  2.206e-01  t[s]:  27464.06
FluidMinimize: Iter:  95  G: -0.019314404702704  |grad|_K:  6.072e-06  alpha:  1.443e-02  linmin: -1.233e-04  cgtest: -1.397e-01  t[s]:  27464.60
FluidMinimize: 	Predicted alpha/alphaT>3.000000, increasing alphaT to 4.329756e-02.
FluidMinimize: Iter:  96  G: -0.019316429716923  |grad|_K:  5.213e-06  alpha:  5.623e-02  linmin: -2.459e-03  cgtest: -1.110e-04  t[s]:  27465.40
FluidMinimize: Iter:  97  G: -0.019317259691957  |grad|_K:  9.399e-06  alpha:  3.015e-02  linmin: -8.441e-04  cgtest:  9.186e-03  t[s]:  27465.92
FluidMinimize: Iter:  98  G: -0.019319440639601  |grad|_K:  4.907e-06  alpha:  2.482e-02  linmin:  2.054e-03  cgtest:  4.560e-01  t[s]:  27466.46
FluidMinimize: Iter:  99  G: -0.019319999154489  |grad|_K:  6.431e-06  alpha:  2.405e-02  linmin: -1.415e-03  cgtest:  8.237e-03  t[s]:  27466.99
FluidMinimize: Iter: 100  G: -0.019320823919123  |grad|_K:  6.748e-06  alpha:  2.036e-02  linmin: -5.655e-04  cgtest: -9.604e-02  t[s]:  27467.53
FluidMinimize: None of the convergence criteria satisfied after 100 iterations.

Fluid minimization # 6 changed total free energy by -1.575072e-04 at t[s]:  27467.83

-------------------- Electronic Minimization # 6 ---------------------
	FillingsUpdate:  mu: -0.173600000  nElectrons: 330.137405
ElecMinimize: Iter:   0  G: -1744.848286406633179  |grad|_K:  3.903e-06  alpha:  1.000e+00
	FillingsUpdate:  mu: -0.173600000  nElectrons: 330.115598
	SubspaceRotationAdjust: set factor to 0.0194
ElecMinimize: Iter:   1  G: -1744.848411980249011  |grad|_K:  4.686e-07  alpha:  1.760e-01  linmin: -9.356e-04  t[s]:  28019.32
	FillingsUpdate:  mu: -0.173600000  nElectrons: 330.114978
	SubspaceRotationAdjust: set factor to 0.0277
ElecMinimize: Iter:   2  G: -1744.848416763819841  |grad|_K:  2.817e-07  alpha:  4.650e-01  linmin: -1.973e-05  t[s]:  28401.28
	FillingsUpdate:  mu: -0.173600000  nElectrons: 330.115592
	SubspaceRotationAdjust: set factor to 0.0361
ElecMinimize: Iter:   3  G: -1744.848419085165233  |grad|_K:  2.559e-07  alpha:  6.253e-01  linmin:  2.191e-05  t[s]:  28789.19
	FillingsUpdate:  mu: -0.173600000  nElectrons: 330.115481
	SubspaceRotationAdjust: set factor to 0.0409
ElecMinimize: Iter:   4  G: -1744.848421370379356  |grad|_K:  3.176e-07  alpha:  7.463e-01  linmin:  1.452e-05  t[s]:  29176.26
	FillingsUpdate:  mu: -0.173600000  nElectrons: 330.117974
	SubspaceRotationAdjust: set factor to 0.0278
ElecMinimize: Iter:   5  G: -1744.848422958277524  |grad|_K:  4.536e-07  alpha:  3.367e-01  linmin:  6.708e-06  t[s]:  29561.95
	FillingsUpdate:  mu: -0.173600000  nElectrons: 330.116883
	SubspaceRotationAdjust: set factor to 0.0213
ElecMinimize: Iter:   6  G: -1744.848425646182022  |grad|_K:  2.942e-07  alpha:  2.791e-01  linmin:  4.539e-06  t[s]:  29953.11
	FillingsUpdate:  mu: -0.173600000  nElectrons: 330.118138
	SubspaceRotationAdjust: set factor to 0.0225
ElecMinimize: Iter:   7  G: -1744.848428279921336  |grad|_K:  2.594e-07  alpha:  6.495e-01  linmin: -2.643e-05  t[s]:  30334.00
	FillingsUpdate:  mu: -0.173600000  nElectrons: 330.118297
	SubspaceRotationAdjust: set factor to 0.0255
ElecMinimize: Iter:   8  G: -1744.848429932890667  |grad|_K:  1.923e-07  alpha:  5.238e-01  linmin: -3.560e-06  t[s]:  30717.50
	FillingsUpdate:  mu: -0.173600000  nElectrons: 330.118981
	SubspaceRotationAdjust: set factor to 0.0296
ElecMinimize: Iter:   9  G: -1744.848430846817791  |grad|_K:  1.556e-07  alpha:  5.282e-01  linmin: -5.684e-06  t[s]:  31097.02
	FillingsUpdate:  mu: -0.173600000  nElectrons: 330.118507
	SubspaceRotationAdjust: set factor to 0.0258
ElecMinimize: Iter:  10  G: -1744.848431375664632  |grad|_K:  1.528e-07  alpha:  4.669e-01  linmin:  9.678e-07  t[s]:  31479.98
	FillingsUpdate:  mu: -0.173600000  nElectrons: 330.119398
	SubspaceRotationAdjust: set factor to 0.0204
ElecMinimize: Iter:  11  G: -1744.848431671368871  |grad|_K:  1.323e-07  alpha:  2.702e-01  linmin: -5.054e-08  t[s]:  31869.11
	FillingsUpdate:  mu: -0.173600000  nElectrons: 330.119079
	SubspaceRotationAdjust: set factor to 0.0231
ElecMinimize: Iter:  12  G: -1744.848432047066353  |grad|_K:  1.037e-07  alpha:  4.573e-01  linmin: -1.013e-04  t[s]:  32254.16
ElecMinimize: Converged (|Delta G|<4.350483e-07 for 2 iters).
Setting wave functions to eigenvectors of Hamiltonian

Electronic minimization # 6 changed total free energy by -3.647071e-05 at t[s]:  32271.23

---------------------- Fluid Minimization # 7 -----------------------
FluidMinimize: Iter:   0  G: -0.021940409839452  |grad|_K:  3.566e-05  alpha:  1.000e+00
FluidMinimize: Iter:   1  G: -0.021940605443230  |grad|_K:  3.543e-05  alpha:  7.972e-05  linmin: -1.194e-01  cgtest:  1.000e+00  t[s]:  32272.11
FluidMinimize: Encountered beta<0, resetting CG.
FluidMinimize: 	Predicted alpha/alphaT>3.000000, increasing alphaT to 2.391733e-04.
FluidMinimize: 	Predicted alpha/alphaT>3.000000, increasing alphaT to 7.175198e-04.
FluidMinimize: 	Predicted alpha/alphaT>3.000000, increasing alphaT to 2.152559e-03.
FluidMinimize: 	Predicted alpha/alphaT>3.000000, increasing alphaT to 6.457678e-03.
FluidMinimize: Iter:   2  G: -0.021955542465810  |grad|_K:  1.111e-05  alpha:  1.229e-02  linmin: -2.719e-04  cgtest:  3.951e-03  t[s]:  32273.64
FluidMinimize: Iter:   3  G: -0.021957874879686  |grad|_K:  1.554e-05  alpha:  1.947e-02  linmin: -4.836e-04  cgtest:  3.375e-03  t[s]:  32274.19
FluidMinimize: Iter:   4  G: -0.021962052476515  |grad|_K:  7.097e-06  alpha:  1.761e-02  linmin:  5.638e-03  cgtest: -4.122e-02  t[s]:  32274.74
FluidMinimize: Iter:   5  G: -0.021964515941391  |grad|_K:  4.203e-06  alpha:  5.236e-02  linmin: -2.204e-03  cgtest:  9.713e-02  t[s]:  32275.29
FluidMinimize: Iter:   6  G: -0.021965169631837  |grad|_K:  8.379e-06  alpha:  3.777e-02  linmin:  4.037e-05  cgtest: -1.258e-02  t[s]:  32275.84
FluidMinimize: Iter:   7  G: -0.021966474799810  |grad|_K:  6.687e-06  alpha:  1.930e-02  linmin:  2.165e-04  cgtest:  2.929e-02  t[s]:  32276.38
FluidMinimize: Converged (|Delta G|<1.575072e-06 for 2 iters).

Fluid minimization # 7 changed total free energy by -2.606496e-05 at t[s]:  32276.69

-------------------- Electronic Minimization # 7 ---------------------
	FillingsUpdate:  mu: -0.173600000  nElectrons: 330.136608
ElecMinimize: Iter:   0  G: -1744.848416992901775  |grad|_K:  2.283e-06  alpha:  1.000e+00
	FillingsUpdate:  mu: -0.173600000  nElectrons: 330.125361
	SubspaceRotationAdjust: set factor to 0.0128
ElecMinimize: Iter:   1  G: -1744.848454037546617  |grad|_K:  7.139e-07  alpha:  1.514e-01  linmin: -1.629e-03  t[s]:  32830.04
ElecMinimize: 	Predicted alpha/alphaT>3.000000, increasing alphaT to 4.542354e-01.
	FillingsUpdate:  mu: -0.173600000  nElectrons: 330.128422
	SubspaceRotationAdjust: set factor to 0.0188
ElecMinimize: Iter:   2  G: -1744.848465812072163  |grad|_K:  3.950e-07  alpha:  4.921e-01  linmin: -3.039e-05  t[s]:  33311.37
	FillingsUpdate:  mu: -0.173600000  nElectrons: 330.129152
	SubspaceRotationAdjust: set factor to 0.0236
ElecMinimize: Iter:   3  G: -1744.848469845102045  |grad|_K:  3.192e-07  alpha:  5.522e-01  linmin: -3.942e-05  t[s]:  33698.56
	FillingsUpdate:  mu: -0.173600000  nElectrons: 330.127919
	SubspaceRotationAdjust: set factor to 0.0242
ElecMinimize: Iter:   4  G: -1744.848472992756342  |grad|_K:  3.718e-07  alpha:  6.602e-01  linmin:  4.546e-05  t[s]:  34088.53
	FillingsUpdate:  mu: -0.173600000  nElectrons: 330.130778
	SubspaceRotationAdjust: set factor to 0.0189
ElecMinimize: Iter:   5  G: -1744.848475880037540  |grad|_K:  3.863e-07  alpha:  4.467e-01  linmin:  5.429e-06  t[s]:  34476.84
	FillingsUpdate:  mu: -0.173600000  nElectrons: 330.129622
	SubspaceRotationAdjust: set factor to 0.0157
ElecMinimize: Iter:   6  G: -1744.848478703671390  |grad|_K:  2.836e-07  alpha:  4.044e-01  linmin:  1.618e-05  t[s]:  34866.78
	FillingsUpdate:  mu: -0.173600000  nElectrons: 330.130421
	SubspaceRotationAdjust: set factor to 0.017
ElecMinimize: Iter:   7  G: -1744.848481038778118  |grad|_K:  1.975e-07  alpha:  6.207e-01  linmin:  2.330e-05  t[s]:  35248.63
	FillingsUpdate:  mu: -0.173600000  nElectrons: 330.130910
	SubspaceRotationAdjust: set factor to 0.018
ElecMinimize: Iter:   8  G: -1744.848481953534474  |grad|_K:  1.384e-07  alpha:  5.011e-01  linmin: -1.344e-05  t[s]:  35634.09
	FillingsUpdate:  mu: -0.173600000  nElectrons: 330.130430
	SubspaceRotationAdjust: set factor to 0.0168
ElecMinimize: Iter:   9  G: -1744.848482313036357  |grad|_K:  9.442e-08  alpha:  4.008e-01  linmin:  5.788e-06  t[s]:  36023.26
ElecMinimize: Converged (|Delta G|<1.575072e-06 for 2 iters).
Setting wave functions to eigenvectors of Hamiltonian

Electronic minimization # 7 changed total free energy by -2.420101e-05 at t[s]:  36040.40

[...]
FluidMinimize: Iter:  30  G: -0.027197768882507  |grad|_K:  2.876e-06  alpha:  1.677e-02  linmin:  4.858e-04  cgtest:  5.504e-03  t[s]:  43130.73
FluidMinimize: Iter:  31  G: -0.027198027376180  |grad|_K:  5.396e-06  alpha:  3.261e-02  linmin: -2.071e-04  cgtest:  3.164e-02  t[s]:  43131.28
FluidMinimize: Iter:  32  G: -0.027198378614636  |grad|_K:  2.981e-06  alpha:  1.232e-02  linmin: -2.437e-04  cgtest: -7.666e-03  t[s]:  43131.84
FluidMinimize: Iter:  33  G: -0.027198542344769  |grad|_K:  3.778e-06  alpha:  1.886e-02  linmin: -4.780e-04  cgtest:  3.539e-03  t[s]:  43132.39
FluidMinimize: Iter:  34  G: -0.027198756093183  |grad|_K:  3.534e-06  alpha:  1.532e-02  linmin:  1.019e-05  cgtest: -2.438e-02  t[s]:  43132.95
FluidMinimize: Iter:  35  G: -0.027198960518141  |grad|_K:  3.579e-06  alpha:  1.692e-02  linmin:  2.121e-05  cgtest:  2.240e-02  t[s]:  43133.49
FluidMinimize: Iter:  36  G: -0.027199212255082  |grad|_K:  3.841e-06  alpha:  2.037e-02  linmin:  4.878e-04  cgtest:  1.926e-02  t[s]:  43134.05
FluidMinimize: Iter:  37  G: -0.027199355324160  |grad|_K:  2.998e-06  alpha:  1.013e-02  linmin:  1.860e-05  cgtest:  2.527e-02  t[s]:  43134.60
FluidMinimize: 	Predicted alpha/alphaT>3.000000, increasing alphaT to 3.037883e-02.
FluidMinimize: Iter:  38  G: -0.027199760148996  |grad|_K:  5.678e-06  alpha:  4.666e-02  linmin:  3.141e-04  cgtest: -1.814e-02  t[s]:  43135.41
FluidMinimize: Iter:  39  G: -0.027200089892700  |grad|_K:  3.842e-06  alpha:  1.108e-02  linmin:  2.312e-03  cgtest: -6.178e-02  t[s]:  43135.99
FluidMinimize: Iter:  40  G: -0.027200293180803  |grad|_K:  3.165e-06  alpha:  1.478e-02  linmin: -3.489e-05  cgtest:  6.720e-02  t[s]:  43136.54
FluidMinimize: Iter:  41  G: -0.027200455687555  |grad|_K:  3.066e-06  alpha:  1.672e-02  linmin: -6.073e-04  cgtest: -2.394e-02  t[s]:  43137.09
FluidMinimize: Iter:  42  G: -0.027200587684598  |grad|_K:  3.513e-06  alpha:  1.437e-02  linmin: -7.447e-05  cgtest: -2.520e-02  t[s]:  43137.67
FluidMinimize: Iter:  43  G: -0.027201056187613  |grad|_K:  3.719e-06  alpha:  3.911e-02  linmin: -1.592e-04  cgtest:  2.531e-02  t[s]:  43138.21
FluidMinimize: Iter:  44  G: -0.027201212668447  |grad|_K:  3.649e-06  alpha:  1.139e-02  linmin: -1.315e-03  cgtest:  2.911e-02  t[s]:  43138.80
FluidMinimize: Iter:  45  G: -0.027201463163856  |grad|_K:  2.916e-06  alpha:  1.913e-02  linmin:  4.193e-04  cgtest: -2.913e-02  t[s]:  43139.38
FluidMinimize: Iter:  46  G: -0.027201662025888  |grad|_K:  4.559e-06  alpha:  2.439e-02  linmin:  4.753e-04  cgtest:  2.739e-02  t[s]:  43139.99
FluidMinimize: Iter:  47  G: -0.027201936242368  |grad|_K:  3.047e-06  alpha:  1.380e-02  linmin:  8.043e-05  cgtest:  3.120e-02  t[s]:  43140.56
FluidMinimize: Iter:  48  G: -0.027202121789965  |grad|_K:  3.698e-06  alpha:  2.069e-02  linmin:  2.690e-05  cgtest: -2.597e-03  t[s]:  43141.12
FluidMinimize: Iter:  49  G: -0.027202317948956  |grad|_K:  3.780e-06  alpha:  1.491e-02  linmin: -7.179e-05  cgtest: -5.229e-03  t[s]:  43141.69
FluidMinimize: Iter:  50  G: -0.027202643222832  |grad|_K:  4.508e-06  alpha:  2.345e-02  linmin: -2.013e-04  cgtest: -2.415e-02  t[s]:  43142.26
FluidMinimize: Iter:  51  G: -0.027203009362526  |grad|_K:  4.182e-06  alpha:  1.855e-02  linmin: -3.849e-06  cgtest: -2.729e-02  t[s]:  43142.80
FluidMinimize: Iter:  52  G: -0.027203160445773  |grad|_K:  2.570e-06  alpha:  8.790e-03  linmin: -4.975e-04  cgtest:  3.785e-02  t[s]:  43143.36
FluidMinimize: 	Predicted alpha/alphaT>3.000000, increasing alphaT to 2.636985e-02.
FluidMinimize: Iter:  53  G: -0.027203410937017  |grad|_K:  3.964e-06  alpha:  3.890e-02  linmin:  8.470e-05  cgtest: -3.520e-04  t[s]:  43144.15
FluidMinimize: Iter:  54  G: -0.027203591401844  |grad|_K:  3.956e-06  alpha:  1.166e-02  linmin: -7.903e-04  cgtest:  3.431e-02  t[s]:  43144.71
FluidMinimize: Iter:  55  G: -0.027204039673621  |grad|_K:  3.296e-06  alpha:  2.898e-02  linmin: -7.657e-04  cgtest: -3.416e-02  t[s]:  43145.28
FluidMinimize: Iter:  56  G: -0.027204172933790  |grad|_K:  3.843e-06  alpha:  1.247e-02  linmin: -1.017e-04  cgtest: -7.200e-03  t[s]:  43145.83
FluidMinimize: Iter:  57  G: -0.027204609582998  |grad|_K:  3.799e-06  alpha:  3.031e-02  linmin: -6.621e-04  cgtest:  5.996e-02  t[s]:  43146.38
FluidMinimize: Iter:  58  G: -0.027204909814126  |grad|_K:  4.927e-06  alpha:  2.120e-02  linmin:  2.755e-05  cgtest: -6.441e-03  t[s]:  43146.94
FluidMinimize: Iter:  59  G: -0.027205147901653  |grad|_K:  3.040e-06  alpha:  1.008e-02  linmin: -1.712e-04  cgtest:  1.882e-02  t[s]:  43147.50
FluidMinimize: Iter:  60  G: -0.027205325902373  |grad|_K:  3.565e-06  alpha:  1.996e-02  linmin:  7.880e-04  cgtest: -8.682e-03  t[s]:  43148.06
FluidMinimize: Iter:  61  G: -0.027205659464727  |grad|_K:  5.047e-06  alpha:  2.737e-02  linmin: -7.165e-04  cgtest:  4.458e-02  t[s]:  43148.63
FluidMinimize: Iter:  62  G: -0.027205884350889  |grad|_K:  3.003e-06  alpha:  9.015e-03  linmin: -6.192e-05  cgtest: -7.295e-02  t[s]:  43149.18
FluidMinimize: 	Predicted alpha/alphaT>3.000000, increasing alphaT to 2.704586e-02.
FluidMinimize: Iter:  63  G: -0.027206150704149  |grad|_K:  3.812e-06  alpha:  3.041e-02  linmin: -1.034e-03  cgtest: -1.773e-03  t[s]:  43149.96
FluidMinimize: Iter:  64  G: -0.027206318518383  |grad|_K:  3.793e-06  alpha:  1.172e-02  linmin: -2.355e-04  cgtest: -2.103e-02  t[s]:  43150.51
FluidMinimize: Iter:  65  G: -0.027206674093565  |grad|_K:  4.302e-06  alpha:  2.561e-02  linmin:  8.038e-04  cgtest:  2.271e-02  t[s]:  43151.05
FluidMinimize: Iter:  66  G: -0.027206884042460  |grad|_K:  2.580e-06  alpha:  1.177e-02  linmin: -2.129e-04  cgtest:  7.154e-02  t[s]:  43151.60
FluidMinimize: Iter:  67  G: -0.027206953328086  |grad|_K:  2.685e-06  alpha:  1.071e-02  linmin:  1.380e-05  cgtest: -8.969e-03  t[s]:  43152.16
FluidMinimize: 	Predicted alpha/alphaT>3.000000, increasing alphaT to 3.214163e-02.
FluidMinimize: Iter:  68  G: -0.027207211123524  |grad|_K:  3.702e-06  alpha:  3.705e-02  linmin:  5.665e-04  cgtest:  2.040e-03  t[s]:  43152.97
FluidMinimize: Iter:  69  G: -0.027207413072304  |grad|_K:  4.390e-06  alpha:  1.530e-02  linmin: -2.642e-04  cgtest:  3.409e-02  t[s]:  43153.51
FluidMinimize: Iter:  70  G: -0.027207717300425  |grad|_K:  3.976e-06  alpha:  1.625e-02  linmin:  8.512e-05  cgtest: -2.179e-02  t[s]:  43154.07
FluidMinimize: Iter:  71  G: -0.027207895668817  |grad|_K:  2.699e-06  alpha:  1.176e-02  linmin: -1.357e-04  cgtest: -4.484e-03  t[s]:  43154.61
FluidMinimize: Iter:  72  G: -0.027208028352711  |grad|_K:  4.065e-06  alpha:  1.877e-02  linmin: -4.785e-05  cgtest: -1.056e-02  t[s]:  43155.16
FluidMinimize: Iter:  73  G: -0.027208378208395  |grad|_K:  3.124e-06  alpha:  2.180e-02  linmin: -9.209e-04  cgtest: -2.032e-02  t[s]:  43155.71
FluidMinimize: Iter:  74  G: -0.027208490316544  |grad|_K:  3.014e-06  alpha:  1.163e-02  linmin: -2.946e-04  cgtest:  1.134e-03  t[s]:  43156.26
FluidMinimize: Iter:  75  G: -0.027208649041891  |grad|_K:  3.459e-06  alpha:  1.801e-02  linmin:  2.340e-04  cgtest:  2.178e-02  t[s]:  43156.82
FluidMinimize: Iter:  76  G: -0.027208866065608  |grad|_K:  3.766e-06  alpha:  1.883e-02  linmin:  1.890e-04  cgtest:  1.457e-02  t[s]:  43157.38
FluidMinimize: Iter:  77  G: -0.027209134231833  |grad|_K:  5.133e-06  alpha:  1.960e-02  linmin: -3.296e-04  cgtest:  4.552e-03  t[s]:  43157.92
FluidMinimize: Iter:  78  G: -0.027209432515711  |grad|_K:  2.482e-06  alpha:  1.160e-02  linmin: -1.303e-04  cgtest: -2.291e-02  t[s]:  43158.50
FluidMinimize: Iter:  79  G: -0.027209520231106  |grad|_K:  3.059e-06  alpha:  1.468e-02  linmin: -1.467e-04  cgtest:  2.179e-03  t[s]:  43159.05
FluidMinimize: Iter:  80  G: -0.027209731345376  |grad|_K:  4.120e-06  alpha:  2.325e-02  linmin:  6.028e-05  cgtest: -7.935e-03  t[s]:  43159.61
FluidMinimize: Iter:  81  G: -0.027210018501069  |grad|_K:  4.079e-06  alpha:  1.758e-02  linmin: -1.813e-04  cgtest: -6.568e-03  t[s]:  43160.17
FluidMinimize: Iter:  82  G: -0.027210285152446  |grad|_K:  4.623e-06  alpha:  1.651e-02  linmin:  2.245e-04  cgtest: -1.281e-02  t[s]:  43160.75
FluidMinimize: Iter:  83  G: -0.027210506639196  |grad|_K:  2.493e-06  alpha:  1.071e-02  linmin: -1.620e-05  cgtest:  3.172e-02  t[s]:  43161.30
FluidMinimize: Iter:  84  G: -0.027210646570705  |grad|_K:  4.170e-06  alpha:  2.335e-02  linmin:  4.770e-04  cgtest:  4.787e-04  t[s]:  43161.84
FluidMinimize: Iter:  85  G: -0.027210932465167  |grad|_K:  4.012e-06  alpha:  1.718e-02  linmin: -9.139e-05  cgtest:  4.034e-02  t[s]:  43162.41
FluidMinimize: Iter:  86  G: -0.027211150708327  |grad|_K:  3.359e-06  alpha:  1.401e-02  linmin: -8.454e-05  cgtest: -2.367e-02  t[s]:  43162.96
FluidMinimize: Iter:  87  G: -0.027211363938917  |grad|_K:  4.650e-06  alpha:  1.944e-02  linmin: -5.576e-04  cgtest: -7.996e-03  t[s]:  43163.50
FluidMinimize: Iter:  88  G: -0.027211649801599  |grad|_K:  3.504e-06  alpha:  1.353e-02  linmin:  1.023e-05  cgtest: -3.585e-02  t[s]:  43164.06
FluidMinimize: Iter:  89  G: -0.027212003251191  |grad|_K:  5.102e-06  alpha:  2.981e-02  linmin:  2.158e-04  cgtest:  1.165e-02  t[s]:  43164.64
FluidMinimize: Iter:  90  G: -0.027212218624712  |grad|_K:  2.808e-06  alpha:  8.370e-03  linmin: -1.217e-03  cgtest:  7.829e-02  t[s]:  43165.18
FluidMinimize: Iter:  91  G: -0.027212360540857  |grad|_K:  3.466e-06  alpha:  1.827e-02  linmin: -1.115e-04  cgtest: -2.131e-02  t[s]:  43165.74
FluidMinimize: Iter:  92  G: -0.027212649853241  |grad|_K:  5.281e-06  alpha:  2.489e-02  linmin:  3.991e-04  cgtest:  2.090e-02  t[s]:  43166.29
FluidMinimize: Iter:  93  G: -0.027212961799592  |grad|_K:  3.792e-06  alpha:  1.158e-02  linmin: -1.387e-04  cgtest:  3.823e-02  t[s]:  43166.84
FluidMinimize: Iter:  94  G: -0.027213367293229  |grad|_K:  4.898e-06  alpha:  2.897e-02  linmin: -3.909e-04  cgtest: -3.188e-03  t[s]:  43167.43
FluidMinimize: Iter:  95  G: -0.027213572415478  |grad|_K:  3.513e-06  alpha:  9.050e-03  linmin:  1.583e-03  cgtest: -6.309e-02  t[s]:  43167.98
FluidMinimize: Iter:  96  G: -0.027213845738033  |grad|_K:  4.341e-06  alpha:  2.334e-02  linmin: -7.761e-04  cgtest:  4.820e-02  t[s]:  43168.53
FluidMinimize: Iter:  97  G: -0.027214196991823  |grad|_K:  3.488e-06  alpha:  1.903e-02  linmin:  1.472e-04  cgtest: -7.113e-02  t[s]:  43169.08
FluidMinimize: Iter:  98  G: -0.027214293024551  |grad|_K:  2.809e-06  alpha:  8.100e-03  linmin: -3.066e-04  cgtest:  3.515e-02  t[s]:  43169.65
FluidMinimize: 	Predicted alpha/alphaT>3.000000, increasing alphaT to 2.430085e-02.
FluidMinimize: Iter:  99  G: -0.027214685781782  |grad|_K:  3.748e-06  alpha:  5.121e-02  linmin:  1.866e-04  cgtest: -1.069e-03  t[s]:  43170.45
FluidMinimize: Iter: 100  G: -0.027214967703969  |grad|_K:  5.528e-06  alpha:  2.064e-02  linmin: -3.052e-04  cgtest:  2.319e-02  t[s]:  43171.00
FluidMinimize: None of the convergence criteria satisfied after 100 iterations.

Fluid minimization # 10 changed total free energy by -3.266815e-05 at t[s]:  43171.32

-------------------- Electronic Minimization # 10 ---------------------
	FillingsUpdate:  mu: -0.173600000  nElectrons: 330.296279
ElecMinimize: Iter:   0  G: -1744.844380210908867  |grad|_K:  2.328e-05  alpha:  1.000e+00
	FillingsUpdate:  mu: -0.173600000  nElectrons: 330.165119
	SubspaceRotationAdjust: set factor to 0.0477
ElecMinimize: Iter:   1  G: -1744.848566962249834  |grad|_K:  2.127e-06  alpha:  1.621e-01  linmin: -2.444e-02  t[s]:  43723.35
	FillingsUpdate:  mu: -0.173600000  nElectrons: 330.153724
	SubspaceRotationAdjust: set factor to 0.0412
ElecMinimize: Iter:   2  G: -1744.848638983578667  |grad|_K:  1.015e-06  alpha:  3.340e-01  linmin:  2.147e-05  t[s]:  44111.93
	FillingsUpdate:  mu: -0.173600000  nElectrons: 330.157752
	SubspaceRotationAdjust: set factor to 0.0278
ElecMinimize: Iter:   3  G: -1744.848646363107491  |grad|_K:  8.114e-07  alpha:  1.530e-01  linmin:  4.648e-06  t[s]:  44495.87
	FillingsUpdate:  mu: -0.173600000  nElectrons: 330.154131
	SubspaceRotationAdjust: set factor to 0.0282
ElecMinimize: Iter:   4  G: -1744.848654014997237  |grad|_K:  3.905e-07  alpha:  2.484e-01  linmin:  2.996e-05  t[s]:  44878.69
	FillingsUpdate:  mu: -0.173600000  nElectrons: 330.153332
	SubspaceRotationAdjust: set factor to 0.0356
ElecMinimize: Iter:   5  G: -1744.848657382470492  |grad|_K:  2.758e-07  alpha:  4.723e-01  linmin:  1.788e-04  t[s]:  45260.67
	FillingsUpdate:  mu: -0.173600000  nElectrons: 330.155023
	SubspaceRotationAdjust: set factor to 0.0243
ElecMinimize: Iter:   6  G: -1744.848658562793389  |grad|_K:  3.111e-07  alpha:  3.320e-01  linmin: -4.418e-05  t[s]:  45647.94
	FillingsUpdate:  mu: -0.173600000  nElectrons: 330.153656
	SubspaceRotationAdjust: set factor to 0.0195
ElecMinimize: Iter:   7  G: -1744.848659730387681  |grad|_K:  1.826e-07  alpha:  2.575e-01  linmin: -1.664e-05  t[s]:  46036.29
	FillingsUpdate:  mu: -0.173600000  nElectrons: 330.153932
	SubspaceRotationAdjust: set factor to 0.0233
ElecMinimize: Iter:   8  G: -1744.848660735592375  |grad|_K:  1.550e-07  alpha:  6.460e-01  linmin:  1.919e-04  t[s]:  46421.56
	FillingsUpdate:  mu: -0.173600000  nElectrons: 330.154317
	SubspaceRotationAdjust: set factor to 0.0257
ElecMinimize: Iter:   9  G: -1744.848661393247539  |grad|_K:  1.356e-07  alpha:  5.875e-01  linmin: -3.985e-05  t[s]:  46811.57
	FillingsUpdate:  mu: -0.173600000  nElectrons: 330.153736
	SubspaceRotationAdjust: set factor to 0.0234
ElecMinimize: Iter:  10  G: -1744.848661780120210  |grad|_K:  1.297e-07  alpha:  4.494e-01  linmin:  2.293e-05  t[s]:  47196.30
	FillingsUpdate:  mu: -0.173600000  nElectrons: 330.154486
	SubspaceRotationAdjust: set factor to 0.0172
ElecMinimize: Iter:  11  G: -1744.848662054317629  |grad|_K:  1.041e-07  alpha:  3.477e-01  linmin:  7.393e-05  t[s]:  47583.71
	FillingsUpdate:  mu: -0.173600000  nElectrons: 330.154085
	SubspaceRotationAdjust: set factor to 0.0179
ElecMinimize: Iter:  12  G: -1744.848662270099339  |grad|_K:  7.907e-08  alpha:  4.261e-01  linmin: -3.202e-05  t[s]:  47972.60
	FillingsUpdate:  mu: -0.173600000  nElectrons: 330.153970
	SubspaceRotationAdjust: set factor to 0.0216
ElecMinimize: Iter:  13  G: -1744.848662413762213  |grad|_K:  6.238e-08  alpha:  4.895e-01  linmin: -1.807e-04  t[s]:  48359.07
	FillingsUpdate:  mu: -0.173600000  nElectrons: 330.154252
	SubspaceRotationAdjust: set factor to 0.0205
ElecMinimize: Iter:  14  G: -1744.848662505995890  |grad|_K:  5.748e-08  alpha:  5.051e-01  linmin:  5.909e-05  t[s]:  48743.01
	FillingsUpdate:  mu: -0.173600000  nElectrons: 330.153888
	SubspaceRotationAdjust: set factor to 0.0181
ElecMinimize: Iter:  15  G: -1744.848662573749834  |grad|_K:  5.343e-08  alpha:  4.362e-01  linmin: -1.918e-04  t[s]:  49127.71
ElecMinimize: Converged (|Delta G|<1.153109e-07 for 2 iters).
Setting wave functions to eigenvectors of Hamiltonian

Electronic minimization # 10 changed total free energy by -1.069789e-05 at t[s]:  49144.36

Fluid<-->Electron self-consistency loop not yet converged to 1.000000e-05 hartrees after 10 minimization pairs at t[s]:  49144.36.

# Ionic positions in lattice coordinates:
ion O   0.500000000000000   0.500000000000000   0.337241738133342 1
ion C   0.500000000000000   0.500000000000000   0.268785259615645 1
ion Pt   0.000000000000000   0.000000000000000  -0.155941670000000 0
ion Pt   0.500000000000000   0.500000000000000  -0.155941670000000 0
ion Pt   0.000000000000000   0.500000000000000  -0.155941670000000 0
ion Pt   0.500000000000000   0.000000000000000  -0.155941670000000 0
ion Pt   0.750000000000000   0.250000000000000  -0.077970830000000 0
ion Pt   0.250000000000000   0.750000000000000  -0.077970830000000 0
ion Pt   0.250000000000000   0.250000000000000  -0.077970830000000 0
ion Pt   0.750000000000000   0.750000000000000  -0.077970830000000 0
ion Pt   0.500000000000000   0.000000000000000   0.000636102420380 1
ion Pt   0.000000000000000   0.000000000000000   0.000068572656625 1
ion Pt   0.000000000000000   0.500000000000000   0.000605190838580 1
ion Pt   0.500000000000000   0.500000000000000   0.002851040616065 1
ion Pt   0.751009812269011   0.248936709626405   0.086798702447866 1
ion Pt   0.248990187730989   0.751063290373595   0.086798702447866 1
ion Pt   0.248990187730989   0.248936709626405   0.086798702447866 1
ion Pt   0.751009812269011   0.751063290373595   0.086798702447866 1
ion Pt   0.000000000000000   0.000000000000000   0.157693427394402 1
ion Pt   0.000000000000000   0.500000000000000   0.157451059033834 1
ion Pt   0.500000000000000   0.000000000000000   0.157739346616474 1
ion Pt   0.500000000000000   0.500000000000000   0.159396339917972 1


# Forces in Lattice coordinates:
force O   0.000000000000000   0.000000000000000   1.452168062847392 1
force C   0.000000000000000   0.000000000000000  -1.051148037124525 1
force Pt   0.000000000000000   0.000000000000000  -0.123646725507820 0
force Pt   0.000000000000000   0.000000000000000  -0.107574635972082 0
force Pt   0.000000000000000   0.000000000000000  -0.062013885564038 0
force Pt   0.000000000000000   0.000000000000000  -0.076880955013402 0
force Pt  -0.015505384342764   0.034818604114825  -0.752134988418185 0
force Pt   0.015505384342764  -0.034818604114825  -0.752134988418185 0
force Pt   0.015505384342764   0.034818604114825  -0.752134988418185 0
force Pt  -0.015505384342764  -0.034818604114825  -0.752134988418185 0
force Pt   0.000000000000000   0.000000000000000   0.169396298224181 1
force Pt   0.000000000000000   0.000000000000000   0.194422387054365 1
force Pt   0.000000000000000   0.000000000000000   0.188090953774848 1
force Pt   0.000000000000000   0.000000000000000   0.228084879497534 1
force Pt  -0.002570606171381  -0.009426741870064   0.267566928727619 1
force Pt   0.002570606171381   0.009426741870064   0.267566928727391 1
force Pt   0.002570606171381  -0.009426741870063   0.267566928727619 1
force Pt  -0.002570606171381   0.009426741870064   0.267566928727846 1
force Pt   0.000000000000000   0.000000000000000   0.310328782943809 1
force Pt   0.000000000000000   0.000000000000000   0.270056808311687 1
force Pt   0.000000000000000   0.000000000000000   0.293434117879616 1
force Pt   0.000000000000000   0.000000000000000   0.322607805181051 1

# Energy components:
   A_diel =       -0.0287583076423782
   Eewald =    12863.0545750687851978
       EH =    14464.4256901559601829
     Eloc =   -29445.6068828694697004
      Enl =      -17.7197596709620626
      Exc =     -571.6707381156106749
 Exc_core =      324.9288759597889111
       KE =      580.6880547247631057
  MuShift =       -0.0051647571851302
-------------------------------------
     Etot =    -1801.9341078115726305
       TS =        0.2292697394375756
-------------------------------------
        F =    -1802.1633775510101714
      muN =      -57.3147149772604436
-------------------------------------
        G =    -1744.8486625737498343

IonicMinimize: Iter:   0  G: -1744.848662573749834  |grad|_K:  9.838e-03  t[s]:  49190.35
IonicMinimize: None of the convergence criteria satisfied after 0 iterations.

#--- Lowdin population analysis ---
# oxidation-state O -0.131
# oxidation-state C +0.497
# oxidation-state Pt +0.058 +0.038 +0.056 +0.057 -0.051 -0.051 -0.051 -0.051 +0.007 +0.010 +0.008 -0.024 -0.052 -0.052 -0.052 -0.052 +0.049 +0.052 +0.054 -0.117


Dumping '110_3-Solvated.ionpos' ... done
Dumping '110_3-Solvated.n' ... done
Dumping '110_3-Solvated.eigStats' ... 
	eMin: -2.153223 at state 2 ( [ +0.000000 +0.500000 +0.000000 ] spin 0 )
	HOMO: -0.173876 at state 4 ( [ +0.250000 +0.250000 +0.000000 ] spin 0 )
	mu  : -0.173600
	LUMO: -0.173579 at state 0 ( [ +0.000000 +0.000000 +0.000000 ] spin 0 )
	eMax: +0.358198 at state 8 ( [ +0.500000 +0.500000 +0.000000 ] spin 0 )
	HOMO-LUMO gap: +0.000296
	Optical gap  : +0.000527 at state 2 ( [ +0.000000 +0.500000 +0.000000 ] spin 0 )
Dumping '110_3-Solvated.Ecomponents' ... done
End date and time: Fri Apr 26 10:07:49 2019  (Duration: 0-13:40:46.01)
Done!
