--------------------------------------------------------------------------
Initialization of PSM library failed.

  Error: PSM is in the finalized state
--------------------------------------------------------------------------
[node2013][[27681,1],0][btl_openib.c:880:mca_btl_openib_add_procs] could not prepare openib device for use
--------------------------------------------------------------------------
The OpenFabrics (openib) BTL failed to initialize while trying to
allocate some locked memory.  This typically can indicate that the
memlock limits are set too low.  For most HPC installations, the
memlock limits should be set to "unlimited".  The failure occured
here:

  Local host:    node2013
  OMPI source:   btl_openib.c:753
  Function:      ompi_free_list_init_ex_new()
  Device:        qib0
  Memlock limit: 65536

You may need to consult with your system administrator to get this
problem fixed.  This FAQ entry on the Open MPI web site may also be
helpful:

    http://www.open-mpi.org/faq/?category=openfabrics#ib-locked-pages
--------------------------------------------------------------------------

*************** JDFTx 1.4.2 (git hash 74b6e54) ***************

Start date and time: Wed Apr 24 21:07:20 2019
Executable /home/jfm343/JDFTXDIR/build/jdftx with command-line: -i Vacuum.in
Running on hosts (process indices):  node2013.physics.cornell.edu (0)
Divided in process groups (process indices):  0 (0)
Resource initialization completed at t[s]:      0.00
Run totals: 1 processes, 12 threads, 0 GPUs


Input parsed successfully to the following command list (including defaults):

basis kpoint-dependent
coords-type Lattice
core-overlap-check vector
coulomb-interaction Slab 001
coulomb-truncation-embed 0 0 0
davidson-band-ratio 1.1
dump End State IonicPositions ElecDensity EigStats Ecomponents
dump-name 110_2-Vacuum.$VAR
elec-cutoff 20 100
elec-eigen-algo Davidson
elec-ex-corr gga-PBEsol
elec-smearing Fermi 0.01
electronic-minimize  \
	dirUpdateScheme      FletcherReeves \
	linminMethod         DirUpdateRecommended \
	nIterations          200 \
	history              15 \
	knormThreshold       0 \
	energyDiffThreshold  1e-08 \
	nEnergyDiff          2 \
	alphaTstart          1 \
	alphaTmin            1e-10 \
	updateTestStepSize   yes \
	alphaTreduceFactor   0.1 \
	alphaTincreaseFactor 3 \
	nAlphaAdjustMax      3 \
	wolfeEnergy          0.0001 \
	wolfeGradient        0.9 \
	fdTest               no
exchange-regularization WignerSeitzTruncated
fluid None
fluid-ex-corr lda-TF lda-PZ
fluid-gummel-loop 10 1.000000e-05
fluid-minimize  \
	dirUpdateScheme      PolakRibiere \
	linminMethod         DirUpdateRecommended \
	nIterations          100 \
	history              15 \
	knormThreshold       0 \
	energyDiffThreshold  0 \
	nEnergyDiff          2 \
	alphaTstart          1 \
	alphaTmin            1e-10 \
	updateTestStepSize   yes \
	alphaTreduceFactor   0.1 \
	alphaTincreaseFactor 3 \
	nAlphaAdjustMax      3 \
	wolfeEnergy          0.0001 \
	wolfeGradient        0.9 \
	fdTest               no
fluid-solvent H2O 55.338 ScalarEOS \
	epsBulk 78.4 \
	pMol 0.92466 \
	epsInf 1.77 \
	Pvap 1.06736e-10 \
	sigmaBulk 4.62e-05 \
	Rvdw 2.61727 \
	Res 1.42 \
	tauNuc 343133 \
	omegaEl 0.55124 \
	gammaEl 0.257245
forces-output-coords Positions
ion O   0.500000000000000   0.368000000000000   0.307000000000000 1
ion C   0.500000000000000   0.500000000000000   0.268000000000000 1
ion H   0.500000000000000   0.627000000000000   0.297000000000000 1
ion Pt   0.000000000000000   0.000000000000000  -0.155941670000000 0
ion Pt   0.500000000000000   0.500000000000000  -0.155941670000000 0
ion Pt   0.000000000000000   0.500000000000000  -0.155941670000000 0
ion Pt   0.500000000000000   0.000000000000000  -0.155941670000000 0
ion Pt   0.750000000000000   0.250000000000000  -0.077970830000000 0
ion Pt   0.250000000000000   0.750000000000000  -0.077970830000000 0
ion Pt   0.250000000000000   0.250000000000000  -0.077970830000000 0
ion Pt   0.750000000000000   0.750000000000000  -0.077970830000000 0
ion Pt   0.500000000000000   0.000000000000000   0.000000000000000 1
ion Pt   0.000000000000000   0.000000000000000   0.000000000000000 1
ion Pt   0.000000000000000   0.500000000000000   0.000000000000000 1
ion Pt   0.500000000000000   0.500000000000000   0.000000000000000 1
ion Pt   0.750000000000000   0.250000000000000   0.077970830000000 1
ion Pt   0.250000000000000   0.750000000000000   0.077970830000000 1
ion Pt   0.250000000000000   0.250000000000000   0.077970830000000 1
ion Pt   0.750000000000000   0.750000000000000   0.077970830000000 1
ion Pt   0.000000000000000   0.000000000000000   0.155941670000000 1
ion Pt   0.000000000000000   0.500000000000000   0.155941670000000 1
ion Pt   0.500000000000000   0.000000000000000   0.155941670000000 1
ion Pt   0.500000000000000   0.500000000000000   0.155941670000000 1
ion-species GBRV/$ID_pbesol.uspp
ion-width 0
ionic-minimize  \
	dirUpdateScheme      L-BFGS \
	linminMethod         DirUpdateRecommended \
	nIterations          5 \
	history              15 \
	knormThreshold       0.0001 \
	energyDiffThreshold  1e-06 \
	nEnergyDiff          2 \
	alphaTstart          1 \
	alphaTmin            1e-10 \
	updateTestStepSize   yes \
	alphaTreduceFactor   0.1 \
	alphaTincreaseFactor 3 \
	nAlphaAdjustMax      3 \
	wolfeEnergy          0.0001 \
	wolfeGradient        0.9 \
	fdTest               no
kpoint   0.000000000000   0.000000000000   0.000000000000  1.00000000000000
kpoint-folding 4 4 1 
latt-move-scale 1 1 1
latt-scale 1 1 1 
lattice Orthorhombic 10.4761 14.8155 31.4284
lattice-minimize  \
	dirUpdateScheme      L-BFGS \
	linminMethod         DirUpdateRecommended \
	nIterations          0 \
	history              15 \
	knormThreshold       0 \
	energyDiffThreshold  1e-06 \
	nEnergyDiff          2 \
	alphaTstart          1 \
	alphaTmin            1e-10 \
	updateTestStepSize   yes \
	alphaTreduceFactor   0.1 \
	alphaTincreaseFactor 3 \
	nAlphaAdjustMax      3 \
	wolfeEnergy          0.0001 \
	wolfeGradient        0.9 \
	fdTest               no
lcao-params -1 1e-06 0.01
pcm-variant GLSSA13
spintype no-spin
subspace-rotation-factor 1 yes
symmetries automatic
symmetry-threshold 0.0001



---------- Setting up symmetries ----------

Found 8 point-group symmetries of the bravais lattice
Found 2 space-group symmetries with basis
Applied RMS atom displacement 0 bohrs to make symmetries exact.

---------- Initializing the Grid ----------
R = 
[    10.4761          0          0  ]
[          0    14.8155          0  ]
[          0          0    31.4284  ]
unit cell volume = 4877.97
G =
[   0.599762          0          0  ]
[          0   0.424096          0  ]
[          0          0   0.199921  ]
Minimum fftbox size, Smin = [  48  68  144  ]
Chosen fftbox size, S = [  48  70  144  ]

---------- Initializing tighter grid for wavefunction operations ----------
R = 
[    10.4761          0          0  ]
[          0    14.8155          0  ]
[          0          0    31.4284  ]
unit cell volume = 4877.97
G =
[   0.599762          0          0  ]
[          0   0.424096          0  ]
[          0          0   0.199921  ]
Minimum fftbox size, Smin = [  44  60  128  ]
Chosen fftbox size, S = [  48  60  128  ]

---------- Exchange Correlation functional ----------
Initalized PBEsol GGA exchange.
Initalized PBEsol GGA correlation.

---------- Setting up pseudopotentials ----------
Width of ionic core gaussian charges (only for fluid interactions / plotting) set to 0

Reading pseudopotential file '/home/jfm343/JDFTXDIR/build/pseudopotentials/GBRV/o_pbesol.uspp':
  Title: O.  Created by USPP 7.3.6 on 3-2-2014
  Reference state energy: -15.849885.  6 valence electrons in orbitals:
    |200>  occupation: 2  eigenvalue: -0.873214
    |210>  occupation: 4  eigenvalue: -0.330058
  lMax: 2  lLocal: 2  QijEcut: 6
  5 projectors sampled on a log grid with 511 points:
    l: 0  eig: -0.873214  rCut: 1.25
    l: 0  eig: 0.000000  rCut: 1.25
    l: 1  eig: -0.330058  rCut: 1.25
    l: 1  eig: 0.000000  rCut: 1.25
    l: 2  eig: 1.000000  rCut: 1.25
  Partial core density with radius 0.7
  Transforming core density to a uniform radial grid of dG=0.02 with 1265 points.
  Transforming local potential to a uniform radial grid of dG=0.02 with 1265 points.
  Transforming nonlocal projectors to a uniform radial grid of dG=0.02 with 432 points.
  Transforming density augmentations to a uniform radial grid of dG=0.02 with 1265 points.
  Transforming atomic orbitals to a uniform radial grid of dG=0.02 with 432 points.
  Core radius for overlap checks: 1.25 bohrs.

Reading pseudopotential file '/home/jfm343/JDFTXDIR/build/pseudopotentials/GBRV/c_pbesol.uspp':
  Title: C.  Created by USPP 7.3.6 on 3-2-2014
  Reference state energy: -5.383511.  4 valence electrons in orbitals:
    |200>  occupation: 2  eigenvalue: -0.501126
    |210>  occupation: 2  eigenvalue: -0.192448
  lMax: 1  lLocal: 2  QijEcut: 5
  4 projectors sampled on a log grid with 503 points:
    l: 0  eig: -0.501126  rCut: 1.3
    l: 0  eig: 0.000000  rCut: 1.3
    l: 1  eig: -0.192448  rCut: 1.3
    l: 1  eig: 0.000000  rCut: 1.3
  Partial core density with radius 1.1
  Transforming core density to a uniform radial grid of dG=0.02 with 1265 points.
  Transforming local potential to a uniform radial grid of dG=0.02 with 1265 points.
  Transforming nonlocal projectors to a uniform radial grid of dG=0.02 with 432 points.
  Transforming density augmentations to a uniform radial grid of dG=0.02 with 1265 points.
  Transforming atomic orbitals to a uniform radial grid of dG=0.02 with 432 points.
  Core radius for overlap checks: 1.30 bohrs.

Reading pseudopotential file '/home/jfm343/JDFTXDIR/build/pseudopotentials/GBRV/h_pbesol.uspp':
  Title: H.  Created by USPP 7.3.6 on 22-9-15
  Reference state energy: -0.449841.  1 valence electrons in orbitals:
    |100>  occupation: 1  eigenvalue: -0.232690
  lMax: 0  lLocal: 1  QijEcut: 6
  2 projectors sampled on a log grid with 395 points:
    l: 0  eig: -0.232690  rCut: 1.2
    l: 0  eig: 1.000000  rCut: 1.2
  Transforming local potential to a uniform radial grid of dG=0.02 with 1265 points.
  Transforming nonlocal projectors to a uniform radial grid of dG=0.02 with 432 points.
  Transforming density augmentations to a uniform radial grid of dG=0.02 with 1265 points.
  Transforming atomic orbitals to a uniform radial grid of dG=0.02 with 432 points.
  Core radius for overlap checks: 1.20 bohrs.

Reading pseudopotential file '/home/jfm343/JDFTXDIR/build/pseudopotentials/GBRV/pt_pbesol.uspp':
  Title: Pt.  Created by USPP 7.3.6 on 22-9-15
  Reference state energy: -104.899005.  16 valence electrons in orbitals:
    |510>  occupation: 6  eigenvalue: -2.158847
    |520>  occupation: 9.5  eigenvalue: -0.336311
    |600>  occupation: 0  eigenvalue: -0.320324
    |610>  occupation: 0  eigenvalue: -0.119800
  lMax: 2  lLocal: 3  QijEcut: 5.5
  6 projectors sampled on a log grid with 745 points:
    l: 0  eig: -0.320324  rCut: 2.45
    l: 0  eig: 1.500000  rCut: 2.45
    l: 1  eig: -2.158847  rCut: 1.6
    l: 1  eig: -0.119800  rCut: 1.6
    l: 2  eig: -0.500000  rCut: 1.6
    l: 2  eig: -0.336311  rCut: 1.6
  Partial core density with radius 1.1
  Transforming core density to a uniform radial grid of dG=0.02 with 1265 points.
  Transforming local potential to a uniform radial grid of dG=0.02 with 1265 points.
  Transforming nonlocal projectors to a uniform radial grid of dG=0.02 with 432 points.
  Transforming density augmentations to a uniform radial grid of dG=0.02 with 1265 points.
  Transforming atomic orbitals to a uniform radial grid of dG=0.02 with 432 points.
  Core radius for overlap checks: 2.45 bohrs.

Initialized 4 species with 23 total atoms.

Folded 1 k-points by 4x4x1 to 16 k-points.

---------- Setting up k-points, bands, fillings ----------
Adding inversion symmetry to k-mesh for non-inversion-symmetric unit cell.
Reduced to 9 k-points under symmetry. 
Computing the number of bands and number of electrons
Calculating initial fillings.
nElectrons: 331.000000   nBands: 249   nStates: 9

----- Setting up reduced wavefunction bases (one per k-point) -----
average nbasis = 20843.562 , ideal nbasis = 20839.040

---------- Setting up coulomb interaction ----------
Setting up double-sized grid for truncated Coulomb potentials:
R = 
[    10.4761          0          0  ]
[          0    14.8155          0  ]
[          0          0    62.8568  ]
unit cell volume = 9755.93
G =
[   0.599762          0          0  ]
[          0   0.424096          0  ]
[          0          0  0.0999604  ]
Chosen fftbox size, S = [  48  70  288  ]
Integer grid location selected as the embedding center:
   Grid: [  0  0  0  ]
   Lattice: [  0  0  0  ]
   Cartesian: [  0  0  0  ]
Constructing Wigner-Seitz cell: 6 faces (6 quadrilaterals, 0 hexagons)
Range-separation parameter for embedded mesh potentials due to point charges: 0.589372 bohrs.
Initialized slab truncation along lattice direction 001

---------- Setting up 2D ewald sum ----------
Optimum gaussian width for ewald sums = 7.432089 bohr.
Real space sums over 221 unit cells with max indices [  8  6  0  ]
Reciprocal space sums over 99 terms with max indices [  4  5  0  ]

---------- Allocating electronic variables ----------
Initializing wave functions:  linear combination of atomic orbitals
O pseudo-atom occupations:   s ( 2 )  p ( 4 )
C pseudo-atom occupations:   s ( 2 )  p ( 2 )
H pseudo-atom occupations:   s ( 1 )
Pt pseudo-atom occupations:   s ( 0 )  p ( 6 0 )  d ( 10 )
	FillingsUpdate:  mu: -1.815462403  nElectrons: 331.000000
LCAOMinimize: Iter:   0  F: -1789.3074733926903264  |grad|_K:  2.460e-02  alpha:  1.000e+00
LCAOMinimize: 	Step increased F by 1.366744e+02, reducing alpha to 2.026015e-02.
	FillingsUpdate:  mu: -1.312122404  nElectrons: 331.000000
LCAOMinimize: Iter:   1  F: -1794.9429141518369306  |grad|_K:  1.711e-02  alpha:  2.026e-02  linmin: -2.000e-01  cgtest:  6.427e-01  t[s]:    386.96
LCAOMinimize: 	Predicted alpha/alphaT>3.000000, increasing alphaT to 6.078045e-02.
	FillingsUpdate:  mu: -0.527474223  nElectrons: 331.000000
LCAOMinimize: Iter:   2  F: -1799.4013614401217183  |grad|_K:  1.542e-02  alpha:  4.753e-02  linmin:  2.178e-02  cgtest: -3.628e-02  t[s]:    507.04
	FillingsUpdate:  mu: -0.327510846  nElectrons: 331.000000
LCAOMinimize: Iter:   3  F: -1800.5379697657633642  |grad|_K:  5.865e-03  alpha:  1.933e-02  linmin: -3.520e-03  cgtest:  1.919e-01  t[s]:    604.14
LCAOMinimize: 	Predicted alpha/alphaT>3.000000, increasing alphaT to 5.800460e-02.
	FillingsUpdate:  mu: -0.387384965  nElectrons: 331.000000
LCAOMinimize: Iter:   4  F: -1801.7110790265539890  |grad|_K:  2.422e-03  alpha:  1.157e-01  linmin: -5.432e-02  cgtest: -1.643e-02  t[s]:    724.01
	FillingsUpdate:  mu: -0.192677255  nElectrons: 331.000000
LCAOMinimize: Iter:   5  F: -1801.8978894764234155  |grad|_K:  1.902e-03  alpha:  1.039e-01  linmin:  6.912e-03  cgtest:  5.912e-02  t[s]:    815.48
	FillingsUpdate:  mu: -0.142203769  nElectrons: 331.000000
LCAOMinimize: Iter:   6  F: -1802.0338402977604346  |grad|_K:  3.299e-03  alpha:  1.366e-01  linmin: -1.622e-04  cgtest:  5.227e-02  t[s]:    910.07
	FillingsUpdate:  mu: -0.176332881  nElectrons: 331.000000
LCAOMinimize: Iter:   7  F: -1802.1017402420868621  |grad|_K:  1.701e-03  alpha:  3.421e-02  linmin:  4.784e-02  cgtest: -8.057e-01  t[s]:   1004.41
	FillingsUpdate:  mu: -0.182742401  nElectrons: 331.000000
LCAOMinimize: Iter:   8  F: -1802.1058966093933122  |grad|_K:  1.458e-03  alpha:  1.661e-02  linmin:  1.165e-04  cgtest:  9.918e-01  t[s]:   1098.31
LCAOMinimize: Encountered beta<0, resetting CG.
	FillingsUpdate:  mu: -0.190510043  nElectrons: 331.000000
LCAOMinimize: Iter:   9  F: -1802.1186806701946352  |grad|_K:  9.085e-04  alpha:  2.143e-02  linmin:  3.822e-03  cgtest: -1.880e-02  t[s]:   1190.19
LCAOMinimize: 	Predicted alpha/alphaT>3.000000, increasing alphaT to 6.428879e-02.
	FillingsUpdate:  mu: -0.185285187  nElectrons: 331.000000
LCAOMinimize: Iter:  10  F: -1802.1410161836565749  |grad|_K:  5.199e-04  alpha:  9.695e-02  linmin: -8.173e-04  cgtest:  2.039e-01  t[s]:   1307.28
	FillingsUpdate:  mu: -0.201468774  nElectrons: 331.000000
LCAOMinimize: Iter:  11  F: -1802.1461705132799125  |grad|_K:  7.132e-04  alpha:  6.738e-02  linmin:  1.115e-04  cgtest: -1.499e-02  t[s]:   1399.92
	FillingsUpdate:  mu: -0.221931102  nElectrons: 331.000000
LCAOMinimize: Iter:  12  F: -1802.1505343973319668  |grad|_K:  3.025e-04  alpha:  3.023e-02  linmin: -2.127e-03  cgtest:  6.264e-02  t[s]:   1494.23
LCAOMinimize: 	Predicted alpha/alphaT>3.000000, increasing alphaT to 9.069967e-02.
	FillingsUpdate:  mu: -0.221881263  nElectrons: 331.000000
LCAOMinimize: Iter:  13  F: -1802.1535498893097156  |grad|_K:  2.315e-04  alpha:  1.169e-01  linmin:  2.523e-03  cgtest: -1.519e-02  t[s]:   1611.79
	FillingsUpdate:  mu: -0.223067744  nElectrons: 331.000000
LCAOMinimize: Iter:  14  F: -1802.1538258319669694  |grad|_K:  1.160e-04  alpha:  1.816e-02  linmin: -7.125e-03  cgtest:  7.340e-02  t[s]:   1705.17
LCAOMinimize: 	Predicted alpha/alphaT>3.000000, increasing alphaT to 5.448905e-02.
	FillingsUpdate:  mu: -0.226006549  nElectrons: 331.000000
LCAOMinimize: Iter:  15  F: -1802.1541799960925800  |grad|_K:  6.905e-05  alpha:  9.227e-02  linmin:  1.183e-04  cgtest: -7.200e-02  t[s]:   1822.59
	FillingsUpdate:  mu: -0.226347512  nElectrons: 331.000000
LCAOMinimize: Iter:  16  F: -1802.1543582275739936  |grad|_K:  1.157e-04  alpha:  1.331e-01  linmin:  2.398e-04  cgtest:  6.372e-03  t[s]:   1917.27
	FillingsUpdate:  mu: -0.226629330  nElectrons: 331.000000
LCAOMinimize: Iter:  17  F: -1802.1544450128026256  |grad|_K:  4.926e-05  alpha:  2.314e-02  linmin:  2.036e-04  cgtest:  6.618e-03  t[s]:   2009.96
LCAOMinimize: 	Predicted alpha/alphaT>3.000000, increasing alphaT to 6.941386e-02.
	FillingsUpdate:  mu: -0.225064326  nElectrons: 331.000000
LCAOMinimize: Iter:  18  F: -1802.1545328357417475  |grad|_K:  3.066e-05  alpha:  1.289e-01  linmin:  3.129e-04  cgtest:  5.178e-05  t[s]:   2126.17
	FillingsUpdate:  mu: -0.225570518  nElectrons: 331.000000
LCAOMinimize: Iter:  19  F: -1802.1545473656999548  |grad|_K:  3.779e-05  alpha:  5.505e-02  linmin:  4.906e-05  cgtest:  6.334e-04  t[s]:   2217.08
	FillingsUpdate:  mu: -0.226261965  nElectrons: 331.000000
LCAOMinimize: Iter:  20  F: -1802.1545591228359626  |grad|_K:  1.031e-05  alpha:  2.929e-02  linmin:  1.302e-04  cgtest: -4.116e-03  t[s]:   2310.02
LCAOMinimize: 	Predicted alpha/alphaT>3.000000, increasing alphaT to 8.788428e-02.
	FillingsUpdate:  mu: -0.225381838  nElectrons: 331.000000
LCAOMinimize: Iter:  21  F: -1802.1545649973718355  |grad|_K:  1.020e-05  alpha:  1.967e-01  linmin:  8.117e-05  cgtest: -1.664e-04  t[s]:   2432.07
	FillingsUpdate:  mu: -0.225328392  nElectrons: 331.000000
LCAOMinimize: Iter:  22  F: -1802.1545656149860406  |grad|_K:  6.362e-06  alpha:  2.116e-02  linmin:  2.443e-04  cgtest: -7.181e-04  t[s]:   2527.41
LCAOMinimize: 	Predicted alpha/alphaT>3.000000, increasing alphaT to 6.347279e-02.
	FillingsUpdate:  mu: -0.225525446  nElectrons: 331.000000
LCAOMinimize: Iter:  23  F: -1802.1545666749834709  |grad|_K:  3.380e-06  alpha:  9.317e-02  linmin: -1.425e-04  cgtest:  4.065e-03  t[s]:   2648.91
	FillingsUpdate:  mu: -0.225426009  nElectrons: 331.000000
LCAOMinimize: Iter:  24  F: -1802.1545670504226564  |grad|_K:  4.645e-06  alpha:  1.169e-01  linmin:  4.408e-05  cgtest: -9.485e-04  t[s]:   2742.75
	FillingsUpdate:  mu: -0.225383356  nElectrons: 331.000000
LCAOMinimize: Iter:  25  F: -1802.1545671859132653  |grad|_K:  2.368e-06  alpha:  2.223e-02  linmin:  7.872e-06  cgtest:  1.431e-03  t[s]:   2836.57
LCAOMinimize: Converged (|Delta F|<1.000000e-06 for 2 iters).


---- Citations for features of the code used in this run ----

   Software package:
      R. Sundararaman, K. Letchworth-Weaver, K.A. Schwarz, D. Gunceler, Y. Ozhabes and T.A. Arias, 'JDFTx: software for joint density-functional theory', SoftwareX 6, 278 (2017)

   gga-PBEsol exchange-correlation functional:
      J.P. Perdew et al., Phys. Rev. Lett. 100, 136406 (2008)

   Pseudopotentials:
      KF Garrity, JW Bennett, KM Rabe and D Vanderbilt, Comput. Mater. Sci. 81, 446 (2014)

   Truncated Coulomb potentials:
      R. Sundararaman and T.A. Arias, Phys. Rev. B 87, 165122 (2013)

   Total energy minimization with Auxiliary Hamiltonian:
      C. Freysoldt, S. Boeck, and J. Neugebauer, Phys. Rev. B 79, 241103(R) (2009)

This list may not be complete. Please suggest additional citations or
report any other bugs at https://github.com/shankar1729/jdftx/issues

Initialization completed successfully at t[s]:   2918.33


-------- Electronic minimization -----------
	FillingsUpdate:  mu: -0.225383356  nElectrons: 331.000000
ElecMinimize: Iter:   0  F: -1802.154567185910537  |grad|_K:  1.340e-04  alpha:  1.000e+00
	FillingsUpdate:  mu: -0.175909321  nElectrons: 331.000000
	SubspaceRotationAdjust: set factor to 1
ElecMinimize: Iter:   1  F: -1802.532501957250588  |grad|_K:  7.061e-05  alpha:  4.550e-01  linmin:  6.834e-05  t[s]:   3499.58
	FillingsUpdate:  mu: -0.213038262  nElectrons: 331.000000
	SubspaceRotationAdjust: set factor to 0.559
ElecMinimize: Iter:   2  F: -1802.584551420638036  |grad|_K:  1.233e-04  alpha:  2.229e-01  linmin: -2.275e-05  t[s]:   3906.20
	FillingsUpdate:  mu: -0.234604758  nElectrons: 331.000000
	SubspaceRotationAdjust: set factor to 0.377
ElecMinimize: Iter:   3  F: -1802.603298617833616  |grad|_K:  6.577e-05  alpha:  2.530e-02  linmin: -1.008e-04  t[s]:   4316.93
ElecMinimize: 	Predicted alpha/alphaT>3.000000, increasing alphaT to 7.589827e-02.
	FillingsUpdate:  mu: -0.200263850  nElectrons: 331.000000
	SubspaceRotationAdjust: set factor to 0.493
ElecMinimize: Iter:   4  F: -1802.629504828337758  |grad|_K:  3.282e-05  alpha:  1.259e-01  linmin:  2.743e-05  t[s]:   4820.48
	FillingsUpdate:  mu: -0.192838248  nElectrons: 331.000000
	SubspaceRotationAdjust: set factor to 0.335
ElecMinimize: Iter:   5  F: -1802.634025251750018  |grad|_K:  4.182e-05  alpha:  8.998e-02  linmin:  1.093e-06  t[s]:   5226.56
	FillingsUpdate:  mu: -0.196678455  nElectrons: 331.000000
	SubspaceRotationAdjust: set factor to 0.358
ElecMinimize: Iter:   6  F: -1802.644702556896391  |grad|_K:  1.523e-05  alpha:  1.301e-01  linmin:  9.330e-06  t[s]:   5634.51
	FillingsUpdate:  mu: -0.207479543  nElectrons: 331.000000
	SubspaceRotationAdjust: set factor to 0.276
ElecMinimize: Iter:   7  F: -1802.648629646623476  |grad|_K:  1.410e-05  alpha:  3.620e-01  linmin:  2.303e-05  t[s]:   6036.45
	FillingsUpdate:  mu: -0.204034323  nElectrons: 331.000000
	SubspaceRotationAdjust: set factor to 0.179
ElecMinimize: Iter:   8  F: -1802.649767040910092  |grad|_K:  1.452e-05  alpha:  1.217e-01  linmin: -1.591e-05  t[s]:   6443.52
	FillingsUpdate:  mu: -0.196366150  nElectrons: 331.000000
	SubspaceRotationAdjust: set factor to 0.155
ElecMinimize: Iter:   9  F: -1802.651116213973410  |grad|_K:  7.153e-06  alpha:  1.356e-01  linmin:  1.053e-05  t[s]:   6851.98
	FillingsUpdate:  mu: -0.194636405  nElectrons: 331.000000
	SubspaceRotationAdjust: set factor to 0.136
ElecMinimize: Iter:  10  F: -1802.652073582885805  |grad|_K:  6.534e-06  alpha:  4.008e-01  linmin:  2.019e-05  t[s]:   7257.05
	FillingsUpdate:  mu: -0.196504862  nElectrons: 331.000000
	SubspaceRotationAdjust: set factor to 0.104
	SubspaceRotationAdjust: resetting CG because factor has changed by 0.104296
ElecMinimize: 	State modified externally: resetting search direction.
ElecMinimize: Iter:  11  F: -1802.652407381718831  |grad|_K:  5.159e-06  alpha:  1.672e-01
	FillingsUpdate:  mu: -0.196967499  nElectrons: 331.000000
	SubspaceRotationAdjust: set factor to 0.086
ElecMinimize: Iter:  12  F: -1802.652679377963523  |grad|_K:  3.526e-06  alpha:  2.175e-01  linmin: -5.141e-06  t[s]:   8229.54
	FillingsUpdate:  mu: -0.198174871  nElectrons: 331.000000
	SubspaceRotationAdjust: set factor to 0.0794
ElecMinimize: Iter:  13  F: -1802.652860844863653  |grad|_K:  2.553e-06  alpha:  3.105e-01  linmin: -2.958e-06  t[s]:   8642.99
	FillingsUpdate:  mu: -0.198644893  nElectrons: 331.000000
	SubspaceRotationAdjust: set factor to 0.108
ElecMinimize: Iter:  14  F: -1802.653035225536087  |grad|_K:  2.002e-06  alpha:  5.685e-01  linmin: -8.050e-06  t[s]:   9046.73
	FillingsUpdate:  mu: -0.198172667  nElectrons: 331.000000
	SubspaceRotationAdjust: set factor to 0.105
ElecMinimize: Iter:  15  F: -1802.653149034801800  |grad|_K:  2.229e-06  alpha:  6.027e-01  linmin: -3.152e-06  t[s]:   9458.98
	FillingsUpdate:  mu: -0.197828790  nElectrons: 331.000000
	SubspaceRotationAdjust: set factor to 0.086
ElecMinimize: Iter:  16  F: -1802.653230859148834  |grad|_K:  2.576e-06  alpha:  3.504e-01  linmin:  1.226e-06  t[s]:   9869.91
	FillingsUpdate:  mu: -0.196815849  nElectrons: 331.000000
	SubspaceRotationAdjust: set factor to 0.0848
ElecMinimize: Iter:  17  F: -1802.653401732607335  |grad|_K:  2.282e-06  alpha:  5.501e-01  linmin:  8.141e-06  t[s]:  10278.44
	FillingsUpdate:  mu: -0.196510158  nElectrons: 331.000000
	SubspaceRotationAdjust: set factor to 0.0915
ElecMinimize: Iter:  18  F: -1802.653547439574368  |grad|_K:  1.957e-06  alpha:  6.046e-01  linmin:  2.116e-05  t[s]:  10686.18
	FillingsUpdate:  mu: -0.196433641  nElectrons: 331.000000
	SubspaceRotationAdjust: set factor to 0.0772
ElecMinimize: Iter:  19  F: -1802.653604393889964  |grad|_K:  1.394e-06  alpha:  3.227e-01  linmin: -5.955e-06  t[s]:  11091.67
	FillingsUpdate:  mu: -0.196210677  nElectrons: 331.000000
	SubspaceRotationAdjust: set factor to 0.0587
ElecMinimize: Iter:  20  F: -1802.653634163123797  |grad|_K:  1.007e-06  alpha:  3.244e-01  linmin:  7.779e-07  t[s]:  11490.67
	FillingsUpdate:  mu: -0.196198110  nElectrons: 331.000000
	SubspaceRotationAdjust: set factor to 0.0713
ElecMinimize: Iter:  21  F: -1802.653648371239115  |grad|_K:  5.457e-07  alpha:  2.985e-01  linmin:  1.755e-07  t[s]:  11888.25
	FillingsUpdate:  mu: -0.196282605  nElectrons: 331.000000
	SubspaceRotationAdjust: set factor to 0.0763
ElecMinimize: Iter:  22  F: -1802.653655399506761  |grad|_K:  4.911e-07  alpha:  5.031e-01  linmin:  3.444e-06  t[s]:  12279.28
	FillingsUpdate:  mu: -0.196277615  nElectrons: 331.000000
	SubspaceRotationAdjust: set factor to 0.0683
ElecMinimize: Iter:  23  F: -1802.653659293943292  |grad|_K:  3.817e-07  alpha:  3.442e-01  linmin: -1.041e-07  t[s]:  12674.47
	FillingsUpdate:  mu: -0.196288130  nElectrons: 331.000000
	SubspaceRotationAdjust: set factor to 0.0937
ElecMinimize: Iter:  24  F: -1802.653661874030377  |grad|_K:  2.540e-07  alpha:  3.770e-01  linmin:  9.154e-07  t[s]:  13072.35
	FillingsUpdate:  mu: -0.196332604  nElectrons: 331.000000
	SubspaceRotationAdjust: set factor to 0.0959
ElecMinimize: Iter:  25  F: -1802.653663710086676  |grad|_K:  2.854e-07  alpha:  6.071e-01  linmin:  1.071e-06  t[s]:  13468.61
	FillingsUpdate:  mu: -0.196368167  nElectrons: 331.000000
	SubspaceRotationAdjust: set factor to 0.0881
ElecMinimize: Iter:  26  F: -1802.653665093459722  |grad|_K:  3.137e-07  alpha:  3.619e-01  linmin:  1.522e-07  t[s]:  13858.66
	FillingsUpdate:  mu: -0.196482964  nElectrons: 331.000000
	SubspaceRotationAdjust: set factor to 0.1
ElecMinimize: Iter:  27  F: -1802.653667217397924  |grad|_K:  2.634e-07  alpha:  4.598e-01  linmin:  5.287e-07  t[s]:  14251.19
	FillingsUpdate:  mu: -0.196577194  nElectrons: 331.000000
	SubspaceRotationAdjust: set factor to 0.11
ElecMinimize: Iter:  28  F: -1802.653669002407014  |grad|_K:  2.615e-07  alpha:  5.493e-01  linmin:  3.485e-07  t[s]:  14652.74
	FillingsUpdate:  mu: -0.196616822  nElectrons: 331.000000
	SubspaceRotationAdjust: set factor to 0.0889
ElecMinimize: Iter:  29  F: -1802.653669941894805  |grad|_K:  2.452e-07  alpha:  2.926e-01  linmin: -1.782e-07  t[s]:  15045.39
	FillingsUpdate:  mu: -0.196685650  nElectrons: 331.000000
	SubspaceRotationAdjust: set factor to 0.0963
ElecMinimize: Iter:  30  F: -1802.653670853624817  |grad|_K:  1.514e-07  alpha:  3.224e-01  linmin: -2.589e-07  t[s]:  15440.24
	FillingsUpdate:  mu: -0.196704662  nElectrons: 331.000000
	SubspaceRotationAdjust: set factor to 0.124
ElecMinimize: Iter:  31  F: -1802.653671386960013  |grad|_K:  1.253e-07  alpha:  4.939e-01  linmin: -2.816e-07  t[s]:  15833.10
	FillingsUpdate:  mu: -0.196693178  nElectrons: 331.000000
	SubspaceRotationAdjust: set factor to 0.0959
ElecMinimize: Iter:  32  F: -1802.653671670649146  |grad|_K:  1.318e-07  alpha:  3.843e-01  linmin:  1.701e-07  t[s]:  16225.31
	FillingsUpdate:  mu: -0.196684247  nElectrons: 331.000000
	SubspaceRotationAdjust: set factor to 0.096
ElecMinimize: Iter:  33  F: -1802.653671870638391  |grad|_K:  9.682e-08  alpha:  2.455e-01  linmin:  2.068e-07  t[s]:  16620.66
	FillingsUpdate:  mu: -0.196650111  nElectrons: 331.000000
	SubspaceRotationAdjust: set factor to 0.131
ElecMinimize: Iter:  34  F: -1802.653672095182401  |grad|_K:  8.495e-08  alpha:  5.105e-01  linmin:  2.971e-07  t[s]:  17015.56
	FillingsUpdate:  mu: -0.196610592  nElectrons: 331.000000
	SubspaceRotationAdjust: set factor to 0.124
ElecMinimize: Iter:  35  F: -1802.653672286300889  |grad|_K:  1.049e-07  alpha:  5.653e-01  linmin:  5.411e-07  t[s]:  17409.63
	FillingsUpdate:  mu: -0.196597092  nElectrons: 331.000000
	SubspaceRotationAdjust: set factor to 0.0983
ElecMinimize: Iter:  36  F: -1802.653672394992554  |grad|_K:  8.574e-08  alpha:  2.117e-01  linmin: -2.798e-07  t[s]:  17802.78
	FillingsUpdate:  mu: -0.196576165  nElectrons: 331.000000
	SubspaceRotationAdjust: set factor to 0.121
ElecMinimize: Iter:  37  F: -1802.653672535969463  |grad|_K:  6.359e-08  alpha:  4.077e-01  linmin:  2.237e-07  t[s]:  18195.06
	FillingsUpdate:  mu: -0.196566279  nElectrons: 331.000000
	SubspaceRotationAdjust: set factor to 0.127
ElecMinimize: Iter:  38  F: -1802.653672619082727  |grad|_K:  6.052e-08  alpha:  4.391e-01  linmin: -8.125e-07  t[s]:  18584.01
	FillingsUpdate:  mu: -0.196567207  nElectrons: 331.000000
	SubspaceRotationAdjust: set factor to 0.104
ElecMinimize: Iter:  39  F: -1802.653672658563664  |grad|_K:  5.086e-08  alpha:  2.243e-01  linmin:  4.931e-07  t[s]:  18973.12
	FillingsUpdate:  mu: -0.196564822  nElectrons: 331.000000
	SubspaceRotationAdjust: set factor to 0.136
ElecMinimize: Iter:  40  F: -1802.653672699540266  |grad|_K:  3.227e-08  alpha:  3.384e-01  linmin: -1.452e-06  t[s]:  19360.62
	FillingsUpdate:  mu: -0.196566718  nElectrons: 331.000000
	SubspaceRotationAdjust: set factor to 0.153
ElecMinimize: Iter:  41  F: -1802.653672725940396  |grad|_K:  3.029e-08  alpha:  5.496e-01  linmin:  3.602e-06  t[s]:  19751.62
	FillingsUpdate:  mu: -0.196570458  nElectrons: 331.000000
	SubspaceRotationAdjust: set factor to 0.118
ElecMinimize: Iter:  42  F: -1802.653672736668113  |grad|_K:  3.425e-08  alpha:  2.754e-01  linmin: -9.084e-07  t[s]:  20141.57
	FillingsUpdate:  mu: -0.196572549  nElectrons: 331.000000
	SubspaceRotationAdjust: set factor to 0.121
ElecMinimize: Iter:  43  F: -1802.653672751379645  |grad|_K:  2.374e-08  alpha:  2.603e-01  linmin:  1.569e-06  t[s]:  20532.46
	FillingsUpdate:  mu: -0.196578489  nElectrons: 331.000000
	SubspaceRotationAdjust: set factor to 0.149
ElecMinimize: Iter:  44  F: -1802.653672765452484  |grad|_K:  2.173e-08  alpha:  5.505e-01  linmin: -3.412e-07  t[s]:  20924.28
	FillingsUpdate:  mu: -0.196584167  nElectrons: 331.000000
	SubspaceRotationAdjust: set factor to 0.175
ElecMinimize: Iter:  45  F: -1802.653672778795453  |grad|_K:  2.024e-08  alpha:  6.060e-01  linmin:  2.056e-06  t[s]:  21318.05
	FillingsUpdate:  mu: -0.196587194  nElectrons: 331.000000
	SubspaceRotationAdjust: set factor to 0.199
ElecMinimize: Iter:  46  F: -1802.653672788001359  |grad|_K:  1.749e-08  alpha:  5.123e-01  linmin:  3.261e-07  t[s]:  21708.16
	FillingsUpdate:  mu: -0.196586778  nElectrons: 331.000000
	SubspaceRotationAdjust: set factor to 0.145
ElecMinimize: Iter:  47  F: -1802.653672792201860  |grad|_K:  2.207e-08  alpha:  3.175e-01  linmin:  2.142e-07  t[s]:  22103.98
ElecMinimize: Converged (|Delta F|<1.000000e-08 for 2 iters).
Setting wave functions to eigenvectors of Hamiltonian

# Ionic positions in lattice coordinates:
ion O   0.500000000000000   0.368000000000000   0.307000000000000 1
ion C   0.500000000000000   0.500000000000000   0.268000000000000 1
ion H   0.500000000000000   0.627000000000000   0.297000000000000 1
ion Pt   0.000000000000000   0.000000000000000  -0.155941670000000 0
ion Pt   0.500000000000000   0.500000000000000  -0.155941670000000 0
ion Pt   0.000000000000000   0.500000000000000  -0.155941670000000 0
ion Pt   0.500000000000000   0.000000000000000  -0.155941670000000 0
ion Pt   0.750000000000000   0.250000000000000  -0.077970830000000 0
ion Pt   0.250000000000000   0.750000000000000  -0.077970830000000 0
ion Pt   0.250000000000000   0.250000000000000  -0.077970830000000 0
ion Pt   0.750000000000000   0.750000000000000  -0.077970830000000 0
ion Pt   0.500000000000000   0.000000000000000   0.000000000000000 1
ion Pt   0.000000000000000   0.000000000000000   0.000000000000000 1
ion Pt   0.000000000000000   0.500000000000000   0.000000000000000 1
ion Pt   0.500000000000000   0.500000000000000   0.000000000000000 1
ion Pt   0.750000000000000   0.250000000000000   0.077970830000000 1
ion Pt   0.250000000000000   0.750000000000000   0.077970830000000 1
ion Pt   0.250000000000000   0.250000000000000   0.077970830000000 1
ion Pt   0.750000000000000   0.750000000000000   0.077970830000000 1
ion Pt   0.000000000000000   0.000000000000000   0.155941670000000 1
ion Pt   0.000000000000000   0.500000000000000   0.155941670000000 1
ion Pt   0.500000000000000   0.000000000000000   0.155941670000000 1
ion Pt   0.500000000000000   0.500000000000000   0.155941670000000 1


# Forces in Lattice coordinates:
force O   0.000000000000000   0.223968478006487  -0.085981865102820 1
force C   0.000000000000000  -0.418108032235606   1.196809315483028 1
force H   0.000000000000000   0.145566356419114   0.167738076926225 1
force Pt   0.000000000000000  -0.000343874355676  -0.169647612168614 0
force Pt   0.000000000000000   0.000665408161913  -0.456115314923274 0
force Pt   0.000000000000000   0.000120449386056  -0.176617669612536 0
force Pt   0.000000000000000  -0.000541064685888  -0.161990721370341 0
force Pt  -0.005066270738363   0.014866684330334  -1.344673603815651 0
force Pt   0.004551940276743  -0.014675537930675  -1.340700811182473 0
force Pt   0.005066270738363   0.014866684330334  -1.344673603815651 0
force Pt  -0.004551940276743  -0.014675537930675  -1.340700811182473 0
force Pt   0.000000000000000  -0.001227753486152   0.009359080316537 1
force Pt   0.000000000000000  -0.003114081444657  -0.029950043753014 1
force Pt   0.000000000000000   0.002274780408604   0.001267865379718 1
force Pt   0.000000000000000  -0.000220491618483  -0.133928686479500 1
force Pt   0.005881022036050  -0.002856796359033   1.254045663208882 1
force Pt  -0.002157320471846   0.003378107933055   1.264861836849733 1
force Pt  -0.005881022036050  -0.002856796359033   1.254045663208882 1
force Pt   0.002157320471846   0.003378107933055   1.264861836849733 1
force Pt   0.000000000000000   0.003331436726357   0.164299036802259 1
force Pt   0.000000000000000  -0.004191952270827   0.105476684744552 1
force Pt   0.000000000000000   0.011808221862932   0.141735673411331 1
force Pt   0.000000000000000   0.038164306387961  -0.287224835571268 1

# Energy components:
   Eewald =   -11187.8478990528819850
       EH =    -9666.7907822014949488
     Eloc =    18735.5417069860959600
      Enl =      -17.7399879941424174
      Exc =     -572.1447188909629631
 Exc_core =      324.9288838989833152
       KE =      581.6346786886688278
-------------------------------------
     Etot =    -1802.4181185657357673
       TS =        0.2355542264660632
-------------------------------------
        F =    -1802.6536727922018599

IonicMinimize: Iter:   0  F: -1802.653672792201860  |grad|_K:  1.430e-02  t[s]:  22167.36

#--- Lowdin population analysis ---
# oxidation-state O -0.201
# oxidation-state C +0.224
# oxidation-state H +0.227
# oxidation-state Pt +0.070 +0.061 +0.073 +0.070 -0.044 -0.044 -0.044 -0.044 +0.016 +0.015 +0.017 -0.025 -0.041 -0.045 -0.041 -0.045 +0.068 +0.062 +0.067 -0.028


-------- Electronic minimization -----------
	FillingsUpdate:  mu: -0.128447655  nElectrons: 331.000000
ElecMinimize: Iter:   0  F: -1802.376223429249421  |grad|_K:  1.472e-04  alpha:  1.000e+00
	FillingsUpdate:  mu: -0.146184883  nElectrons: 331.000000
	SubspaceRotationAdjust: set factor to 0.0928
ElecMinimize: Iter:   1  F: -1802.554125459542547  |grad|_K:  1.072e-04  alpha:  1.866e-01  linmin:  7.558e-03  t[s]:  22865.69
	FillingsUpdate:  mu: -0.212066398  nElectrons: 331.000000
	SubspaceRotationAdjust: set factor to 0.132
ElecMinimize: Iter:   2  F: -1802.631862447738058  |grad|_K:  2.730e-05  alpha:  1.527e-01  linmin: -2.391e-04  t[s]:  23262.30
	FillingsUpdate:  mu: -0.196198674  nElectrons: 331.000000
	SubspaceRotationAdjust: set factor to 0.108
ElecMinimize: Iter:   3  F: -1802.644136237494195  |grad|_K:  1.691e-05  alpha:  3.504e-01  linmin:  1.691e-04  t[s]:  23653.27
	FillingsUpdate:  mu: -0.194822775  nElectrons: 331.000000
	SubspaceRotationAdjust: set factor to 0.0835
ElecMinimize: Iter:   4  F: -1802.646278963959276  |grad|_K:  1.136e-05  alpha:  1.595e-01  linmin: -2.463e-05  t[s]:  24050.85
ElecMinimize: 	Predicted alpha/alphaT>3.000000, increasing alphaT to 4.785051e-01.
	FillingsUpdate:  mu: -0.193647757  nElectrons: 331.000000
	SubspaceRotationAdjust: set factor to 0.129
ElecMinimize: Iter:   5  F: -1802.649191205742000  |grad|_K:  9.844e-06  alpha:  4.798e-01  linmin:  9.643e-06  t[s]:  24532.25
	FillingsUpdate:  mu: -0.191107005  nElectrons: 331.000000
	SubspaceRotationAdjust: set factor to 0.0854
ElecMinimize: Iter:   6  F: -1802.651636701014240  |grad|_K:  1.479e-05  alpha:  5.383e-01  linmin:  1.162e-04  t[s]:  24923.99
	FillingsUpdate:  mu: -0.193061377  nElectrons: 331.000000
	SubspaceRotationAdjust: set factor to 0.0776
ElecMinimize: Iter:   7  F: -1802.653969886638151  |grad|_K:  9.954e-06  alpha:  2.338e-01  linmin:  9.919e-05  t[s]:  25320.65
	FillingsUpdate:  mu: -0.191299026  nElectrons: 331.000000
	SubspaceRotationAdjust: set factor to 0.0905
ElecMinimize: Iter:   8  F: -1802.656702152458593  |grad|_K:  9.555e-06  alpha:  5.924e-01  linmin: -3.573e-05  t[s]:  25710.95
	FillingsUpdate:  mu: -0.190147638  nElectrons: 331.000000
	SubspaceRotationAdjust: set factor to 0.0752
ElecMinimize: Iter:   9  F: -1802.658406320249924  |grad|_K:  1.000e-05  alpha:  3.915e-01  linmin: -2.693e-06  t[s]:  26100.27
	FillingsUpdate:  mu: -0.193089075  nElectrons: 331.000000
	SubspaceRotationAdjust: set factor to 0.0749
ElecMinimize: Iter:  10  F: -1802.659851086580602  |grad|_K:  5.738e-06  alpha:  3.081e-01  linmin: -2.274e-05  t[s]:  26488.36
	FillingsUpdate:  mu: -0.194314524  nElectrons: 331.000000
	SubspaceRotationAdjust: set factor to 0.081
ElecMinimize: Iter:  11  F: -1802.660468482991973  |grad|_K:  3.829e-06  alpha:  3.980e-01  linmin: -9.602e-06  t[s]:  26880.40
	FillingsUpdate:  mu: -0.194051871  nElectrons: 331.000000
	SubspaceRotationAdjust: set factor to 0.0613
ElecMinimize: Iter:  12  F: -1802.660684553648480  |grad|_K:  2.897e-06  alpha:  3.133e-01  linmin:  4.608e-06  t[s]:  27270.90
	FillingsUpdate:  mu: -0.194026129  nElectrons: 331.000000
	SubspaceRotationAdjust: set factor to 0.0585
ElecMinimize: Iter:  13  F: -1802.660807454057931  |grad|_K:  1.625e-06  alpha:  3.118e-01  linmin: -8.512e-06  t[s]:  27660.48
	FillingsUpdate:  mu: -0.194235762  nElectrons: 331.000000
	SubspaceRotationAdjust: set factor to 0.0725
ElecMinimize: Iter:  14  F: -1802.660855659752769  |grad|_K:  1.149e-06  alpha:  3.886e-01  linmin: -2.990e-08  t[s]:  28049.22
	FillingsUpdate:  mu: -0.194430349  nElectrons: 331.000000
	SubspaceRotationAdjust: set factor to 0.073
ElecMinimize: Iter:  15  F: -1802.660879077662003  |grad|_K:  8.849e-07  alpha:  3.772e-01  linmin:  5.503e-07  t[s]:  28439.85
	FillingsUpdate:  mu: -0.194617511  nElectrons: 331.000000
	SubspaceRotationAdjust: set factor to 0.0732
ElecMinimize: Iter:  16  F: -1802.660895394782756  |grad|_K:  7.949e-07  alpha:  4.434e-01  linmin: -1.985e-06  t[s]:  28825.70
	FillingsUpdate:  mu: -0.194645557  nElectrons: 331.000000
	SubspaceRotationAdjust: set factor to 0.0867
ElecMinimize: Iter:  17  F: -1802.660908425046500  |grad|_K:  6.564e-07  alpha:  4.388e-01  linmin:  5.317e-07  t[s]:  29213.38
	FillingsUpdate:  mu: -0.194676500  nElectrons: 331.000000
	SubspaceRotationAdjust: set factor to 0.101
ElecMinimize: Iter:  18  F: -1802.660920533456647  |grad|_K:  6.551e-07  alpha:  5.982e-01  linmin:  9.832e-07  t[s]:  29603.73
	FillingsUpdate:  mu: -0.194705683  nElectrons: 331.000000
	SubspaceRotationAdjust: set factor to 0.0898
ElecMinimize: Iter:  19  F: -1802.660929384995143  |grad|_K:  7.455e-07  alpha:  4.392e-01  linmin: -3.916e-07  t[s]:  29991.50
	FillingsUpdate:  mu: -0.194610224  nElectrons: 331.000000
	SubspaceRotationAdjust: set factor to 0.0758
ElecMinimize: Iter:  20  F: -1802.660937776495985  |grad|_K:  5.415e-07  alpha:  3.213e-01  linmin:  4.056e-07  t[s]:  30379.55
	FillingsUpdate:  mu: -0.194546697  nElectrons: 331.000000
	SubspaceRotationAdjust: set factor to 0.089
ElecMinimize: Iter:  21  F: -1802.660945352058434  |grad|_K:  4.337e-07  alpha:  5.499e-01  linmin: -6.625e-07  t[s]:  30770.03
	FillingsUpdate:  mu: -0.194528925  nElectrons: 331.000000
	SubspaceRotationAdjust: set factor to 0.0939
ElecMinimize: Iter:  22  F: -1802.660949473342953  |grad|_K:  3.538e-07  alpha:  4.663e-01  linmin: -3.784e-07  t[s]:  31157.74
	FillingsUpdate:  mu: -0.194493509  nElectrons: 331.000000
	SubspaceRotationAdjust: set factor to 0.0811
ElecMinimize: Iter:  23  F: -1802.660951613221414  |grad|_K:  2.818e-07  alpha:  3.638e-01  linmin:  7.353e-07  t[s]:  31547.78
	FillingsUpdate:  mu: -0.194497645  nElectrons: 331.000000
	SubspaceRotationAdjust: set factor to 0.0652
ElecMinimize: Iter:  24  F: -1802.660952692713181  |grad|_K:  1.954e-07  alpha:  2.894e-01  linmin:  5.173e-07  t[s]:  31932.77
	FillingsUpdate:  mu: -0.194487146  nElectrons: 331.000000
	SubspaceRotationAdjust: set factor to 0.0777
ElecMinimize: Iter:  25  F: -1802.660953422930334  |grad|_K:  1.335e-07  alpha:  4.063e-01  linmin: -4.247e-06  t[s]:  32317.79
	FillingsUpdate:  mu: -0.194484022  nElectrons: 331.000000
	SubspaceRotationAdjust: set factor to 0.0879
ElecMinimize: Iter:  26  F: -1802.660953806787802  |grad|_K:  1.028e-07  alpha:  4.572e-01  linmin: -1.664e-06  t[s]:  32704.71
	FillingsUpdate:  mu: -0.194499535  nElectrons: 331.000000
	SubspaceRotationAdjust: set factor to 0.0828
ElecMinimize: Iter:  27  F: -1802.660953992927944  |grad|_K:  8.785e-08  alpha:  3.748e-01  linmin:  1.351e-06  t[s]:  33096.15
	FillingsUpdate:  mu: -0.194510050  nElectrons: 331.000000
	SubspaceRotationAdjust: set factor to 0.0766
ElecMinimize: Iter:  28  F: -1802.660954122729208  |grad|_K:  7.227e-08  alpha:  3.590e-01  linmin:  5.427e-06  t[s]:  33483.32
	FillingsUpdate:  mu: -0.194526759  nElectrons: 331.000000
	SubspaceRotationAdjust: set factor to 0.0899
ElecMinimize: Iter:  29  F: -1802.660954240477395  |grad|_K:  5.668e-08  alpha:  4.811e-01  linmin: -5.766e-06  t[s]:  33869.27
	FillingsUpdate:  mu: -0.194537802  nElectrons: 331.000000
	SubspaceRotationAdjust: set factor to 0.106
ElecMinimize: Iter:  30  F: -1802.660954319819666  |grad|_K:  4.853e-08  alpha:  5.220e-01  linmin:  2.662e-06  t[s]:  34258.40
	FillingsUpdate:  mu: -0.194543198  nElectrons: 331.000000
	SubspaceRotationAdjust: set factor to 0.0978
ElecMinimize: Iter:  31  F: -1802.660954369520141  |grad|_K:  5.245e-08  alpha:  4.531e-01  linmin: -8.364e-07  t[s]:  34645.61
	FillingsUpdate:  mu: -0.194549012  nElectrons: 331.000000
	SubspaceRotationAdjust: set factor to 0.0778
ElecMinimize: Iter:  32  F: -1802.660954406405381  |grad|_K:  3.943e-08  alpha:  2.834e-01  linmin:  1.058e-06  t[s]:  35033.29
	FillingsUpdate:  mu: -0.194544410  nElectrons: 331.000000
	SubspaceRotationAdjust: set factor to 0.088
ElecMinimize: Iter:  33  F: -1802.660954437735882  |grad|_K:  2.839e-08  alpha:  4.247e-01  linmin: -4.076e-06  t[s]:  35425.96
	FillingsUpdate:  mu: -0.194542102  nElectrons: 331.000000
	SubspaceRotationAdjust: set factor to 0.101
ElecMinimize: Iter:  34  F: -1802.660954455704996  |grad|_K:  2.284e-08  alpha:  4.681e-01  linmin: -1.538e-06  t[s]:  35812.85
	FillingsUpdate:  mu: -0.194541131  nElectrons: 331.000000
	SubspaceRotationAdjust: set factor to 0.0962
ElecMinimize: Iter:  35  F: -1802.660954466146222  |grad|_K:  1.866e-08  alpha:  4.051e-01  linmin: -1.414e-05  t[s]:  36204.15
	FillingsUpdate:  mu: -0.194537886  nElectrons: 331.000000
	SubspaceRotationAdjust: set factor to 0.0772
ElecMinimize: Iter:  36  F: -1802.660954471127980  |grad|_K:  1.445e-08  alpha:  2.760e-01  linmin: -8.090e-06  t[s]:  36592.93
	FillingsUpdate:  mu: -0.194536193  nElectrons: 331.000000
	SubspaceRotationAdjust: set factor to 0.0945
ElecMinimize: Iter:  37  F: -1802.660954473983111  |grad|_K:  9.036e-09  alpha:  3.314e-01  linmin: -3.843e-05  t[s]:  36980.73
ElecMinimize: Converged (|Delta F|<1.000000e-08 for 2 iters).
Setting wave functions to eigenvectors of Hamiltonian

# Ionic positions in lattice coordinates:
ion O   0.500000000000000   0.369020364306328   0.306912951216346 1
ion C   0.500000000000000   0.498095167158881   0.269211660098946 1
ion H   0.500000000000000   0.627663176870309   0.297169819479391 1
ion Pt   0.000000000000000   0.000000000000000  -0.155941670000000 0
ion Pt   0.500000000000000   0.500000000000000  -0.155941670000000 0
ion Pt   0.000000000000000   0.500000000000000  -0.155941670000000 0
ion Pt   0.500000000000000   0.000000000000000  -0.155941670000000 0
ion Pt   0.750000000000000   0.250000000000000  -0.077970830000000 0
ion Pt   0.250000000000000   0.750000000000000  -0.077970830000000 0
ion Pt   0.250000000000000   0.250000000000000  -0.077970830000000 0
ion Pt   0.750000000000000   0.750000000000000  -0.077970830000000 0
ion Pt   0.500000000000000  -0.000005593447102   0.000009475213834 1
ion Pt   0.000000000000000  -0.000014187253409  -0.000030321683252 1
ion Pt   0.000000000000000   0.500010363533093   0.000001283597873 1
ion Pt   0.500000000000000   0.499998995475706  -0.000135590560177 1
ion Pt   0.750053585978025   0.249986984895995   0.079240436672266 1
ion Pt   0.249980343190914   0.750015390115558   0.079251387059979 1
ion Pt   0.249946414021976   0.249986984895995   0.079240436672266 1
ion Pt   0.750019656809086   0.750015390115558   0.079251387059979 1
ion Pt   0.000000000000000   0.000015177489058   0.156108007765434 1
ion Pt   0.000000000000000   0.499980902140743   0.156048455507617 1
ion Pt   0.500000000000000   0.000053796356601   0.156085164421248 1
ion Pt   0.500000000000000   0.500173870431949   0.155650881093041 1


# Forces in Lattice coordinates:
force O   0.000000000000000  -0.310595798069587   0.675137968067993 1
force C   0.000000000000000   0.177500245628011   0.232048439361752 1
force H   0.000000000000000   0.075148356465643   0.104927359611273 1
force Pt   0.000000000000000  -0.000233589423968  -0.159677352805584 0
force Pt   0.000000000000000   0.000647714164844  -0.449496063591416 0
force Pt   0.000000000000000   0.000107001291925  -0.165189379515188 0
force Pt   0.000000000000000  -0.000381379948320  -0.149703646001036 0
force Pt  -0.004578001388670   0.013588323043192  -1.240779192625945 0
force Pt   0.004191637809804  -0.013756287755570  -1.236657011421540 0
force Pt   0.004578001388670   0.013588323043192  -1.240779192625945 0
force Pt  -0.004191637809804  -0.013756287755570  -1.236657011421540 0
force Pt   0.000000000000000  -0.000852466926989   0.046424292058037 1
force Pt   0.000000000000000  -0.002210351763781   0.020137975772244 1
force Pt   0.000000000000000   0.002187312301435   0.035473358769941 1
force Pt   0.000000000000000  -0.000646822791894  -0.091075541663715 1
force Pt   0.004774399126373  -0.004760616398288   1.083943896259472 1
force Pt  -0.003333261501861   0.007579050909997   1.091563654624957 1
force Pt  -0.004774399126373  -0.004760616398288   1.083943896259472 1
force Pt   0.003333261501861   0.007579050909997   1.091563654624957 1
force Pt   0.000000000000000   0.002673989805712   0.188361395788130 1
force Pt   0.000000000000000  -0.002694295683602   0.135861339843266 1
force Pt   0.000000000000000   0.009088037939482   0.166499736807239 1
force Pt   0.000000000000000   0.044247788211685   0.023153653568154 1

# Energy components:
   Eewald =   -11202.6092048509326560
       EH =    -9680.8892372783902829
     Eloc =    18764.3916227805930248
      Enl =      -17.7344187248526133
      Exc =     -572.1389948287621792
 Exc_core =      324.9288845288307357
       KE =      581.6259394253748951
-------------------------------------
     Etot =    -1802.4254089481396477
       TS =        0.2355455258434718
-------------------------------------
        F =    -1802.6609544739831108

IonicMinimize: Iter:   1  F: -1802.660954473983111  |grad|_K:  1.158e-02  alpha:  1.000e+00  linmin: -4.905e-01  t[s]:  37045.05

#--- Lowdin population analysis ---
# oxidation-state O -0.183
# oxidation-state C +0.240
# oxidation-state H +0.221
# oxidation-state Pt +0.070 +0.061 +0.073 +0.070 -0.045 -0.045 -0.045 -0.045 +0.015 +0.014 +0.016 -0.024 -0.042 -0.046 -0.042 -0.046 +0.066 +0.059 +0.065 -0.039


-------- Electronic minimization -----------
	FillingsUpdate:  mu: -0.013714604  nElectrons: 331.000000
ElecMinimize: Iter:   0  F: -1800.949064335103685  |grad|_K:  3.513e-04  alpha:  1.000e+00
	FillingsUpdate:  mu: -0.100295822  nElectrons: 331.000000
	SubspaceRotationAdjust: set factor to 0.0585
ElecMinimize: Iter:   1  F: -1802.211281281393894  |grad|_K:  1.991e-04  alpha:  2.425e-01  linmin:  2.103e-02  t[s]:  37728.04
	FillingsUpdate:  mu: -0.217927289  nElectrons: 331.000000
	SubspaceRotationAdjust: set factor to 0.073
ElecMinimize: Iter:   2  F: -1802.518611495451978  |grad|_K:  5.748e-05  alpha:  1.821e-01  linmin: -8.345e-05  t[s]:  38121.87
	FillingsUpdate:  mu: -0.193115483  nElectrons: 331.000000
	SubspaceRotationAdjust: set factor to 0.0782
ElecMinimize: Iter:   3  F: -1802.570778509617412  |grad|_K:  3.052e-05  alpha:  3.360e-01  linmin:  1.687e-04  t[s]:  38511.29
	FillingsUpdate:  mu: -0.189184351  nElectrons: 331.000000
	SubspaceRotationAdjust: set factor to 0.0652
ElecMinimize: Iter:   4  F: -1802.582664857509599  |grad|_K:  2.283e-05  alpha:  2.719e-01  linmin: -9.683e-06  t[s]:  38899.44
	FillingsUpdate:  mu: -0.189878334  nElectrons: 331.000000
	SubspaceRotationAdjust: set factor to 0.0845
ElecMinimize: Iter:   5  F: -1802.595816938156077  |grad|_K:  2.232e-05  alpha:  5.392e-01  linmin:  1.092e-04  t[s]:  39288.52
	FillingsUpdate:  mu: -0.183130125  nElectrons: 331.000000
	SubspaceRotationAdjust: set factor to 0.0736
ElecMinimize: Iter:   6  F: -1802.613131492998946  |grad|_K:  2.734e-05  alpha:  7.503e-01  linmin:  2.037e-04  t[s]:  39680.17
	FillingsUpdate:  mu: -0.185342840  nElectrons: 331.000000
	SubspaceRotationAdjust: set factor to 0.0605
ElecMinimize: Iter:   7  F: -1802.624960806838544  |grad|_K:  2.717e-05  alpha:  3.597e-01  linmin:  1.830e-04  t[s]:  40066.62
	FillingsUpdate:  mu: -0.186057173  nElectrons: 331.000000
	SubspaceRotationAdjust: set factor to 0.0595
ElecMinimize: Iter:   8  F: -1802.644182661994591  |grad|_K:  2.511e-05  alpha:  5.784e-01  linmin:  2.547e-04  t[s]:  40456.65
	FillingsUpdate:  mu: -0.186904818  nElectrons: 331.000000
	SubspaceRotationAdjust: set factor to 0.0678
ElecMinimize: Iter:   9  F: -1802.660111293954742  |grad|_K:  2.174e-05  alpha:  5.610e-01  linmin:  1.718e-04  t[s]:  40848.39
	FillingsUpdate:  mu: -0.194705997  nElectrons: 331.000000
	SubspaceRotationAdjust: set factor to 0.0526
ElecMinimize: Iter:  10  F: -1802.667029591435494  |grad|_K:  1.392e-05  alpha:  3.244e-01  linmin:  5.867e-05  t[s]:  41241.42
	FillingsUpdate:  mu: -0.193586449  nElectrons: 331.000000
	SubspaceRotationAdjust: set factor to 0.0545
ElecMinimize: Iter:  11  F: -1802.670337297272226  |grad|_K:  8.157e-06  alpha:  3.655e-01  linmin:  2.729e-05  t[s]:  41627.40
	FillingsUpdate:  mu: -0.192030422  nElectrons: 331.000000
	SubspaceRotationAdjust: set factor to 0.0613
ElecMinimize: Iter:  12  F: -1802.671687713832625  |grad|_K:  5.040e-06  alpha:  4.327e-01  linmin:  5.023e-06  t[s]:  42013.30
	FillingsUpdate:  mu: -0.193001046  nElectrons: 331.000000
	SubspaceRotationAdjust: set factor to 0.0584
ElecMinimize: Iter:  13  F: -1802.672122191931066  |grad|_K:  3.518e-06  alpha:  3.641e-01  linmin: -1.536e-05  t[s]:  42403.67
	FillingsUpdate:  mu: -0.193808163  nElectrons: 331.000000
	SubspaceRotationAdjust: set factor to 0.0682
ElecMinimize: Iter:  14  F: -1802.672355589263589  |grad|_K:  2.441e-06  alpha:  4.013e-01  linmin:  8.162e-06  t[s]:  42791.53
	FillingsUpdate:  mu: -0.193827930  nElectrons: 331.000000
	SubspaceRotationAdjust: set factor to 0.0857
ElecMinimize: Iter:  15  F: -1802.672516951771286  |grad|_K:  2.070e-06  alpha:  5.766e-01  linmin:  5.966e-07  t[s]:  43185.80
	FillingsUpdate:  mu: -0.193717188  nElectrons: 331.000000
	SubspaceRotationAdjust: set factor to 0.0952
ElecMinimize: Iter:  16  F: -1802.672612482338991  |grad|_K:  1.976e-06  alpha:  4.746e-01  linmin: -3.348e-06  t[s]:  43575.22
	FillingsUpdate:  mu: -0.193548503  nElectrons: 331.000000
	SubspaceRotationAdjust: set factor to 0.0867
ElecMinimize: Iter:  17  F: -1802.672684103769370  |grad|_K:  1.844e-06  alpha:  3.903e-01  linmin:  2.543e-07  t[s]:  43970.68
	FillingsUpdate:  mu: -0.193539946  nElectrons: 331.000000
	SubspaceRotationAdjust: set factor to 0.0806
ElecMinimize: Iter:  18  F: -1802.672745716588906  |grad|_K:  1.550e-06  alpha:  3.856e-01  linmin: -6.552e-06  t[s]:  44361.57
	FillingsUpdate:  mu: -0.193275058  nElectrons: 331.000000
	SubspaceRotationAdjust: set factor to 0.096
ElecMinimize: Iter:  19  F: -1802.672797642470869  |grad|_K:  1.184e-06  alpha:  4.595e-01  linmin:  1.227e-06  t[s]:  44759.77
	FillingsUpdate:  mu: -0.193045453  nElectrons: 331.000000
	SubspaceRotationAdjust: set factor to 0.118
ElecMinimize: Iter:  20  F: -1802.672836120674674  |grad|_K:  1.013e-06  alpha:  5.843e-01  linmin: -5.910e-07  t[s]:  45148.94
	FillingsUpdate:  mu: -0.192988223  nElectrons: 331.000000
	SubspaceRotationAdjust: set factor to 0.129
ElecMinimize: Iter:  21  F: -1802.672862113410702  |grad|_K:  1.016e-06  alpha:  5.392e-01  linmin: -6.749e-07  t[s]:  45537.22
	FillingsUpdate:  mu: -0.192910339  nElectrons: 331.000000
	SubspaceRotationAdjust: set factor to 0.104
ElecMinimize: Iter:  22  F: -1802.672875858302859  |grad|_K:  9.491e-07  alpha:  2.830e-01  linmin: -2.719e-06  t[s]:  45928.86
	FillingsUpdate:  mu: -0.192962383  nElectrons: 331.000000
	SubspaceRotationAdjust: set factor to 0.0872
ElecMinimize: Iter:  23  F: -1802.672887020675262  |grad|_K:  6.404e-07  alpha:  2.637e-01  linmin:  9.724e-08  t[s]:  46321.60
	FillingsUpdate:  mu: -0.192989890  nElectrons: 331.000000
	SubspaceRotationAdjust: set factor to 0.0916
ElecMinimize: Iter:  24  F: -1802.672895185774451  |grad|_K:  4.460e-07  alpha:  4.237e-01  linmin: -2.685e-07  t[s]:  46713.93
	FillingsUpdate:  mu: -0.193034248  nElectrons: 331.000000
	SubspaceRotationAdjust: set factor to 0.105
ElecMinimize: Iter:  25  F: -1802.672899458734719  |grad|_K:  2.993e-07  alpha:  4.571e-01  linmin: -2.688e-06  t[s]:  47106.35
	FillingsUpdate:  mu: -0.193084421  nElectrons: 331.000000
	SubspaceRotationAdjust: set factor to 0.114
ElecMinimize: Iter:  26  F: -1802.672901240557849  |grad|_K:  2.366e-07  alpha:  4.234e-01  linmin: -1.518e-07  t[s]:  47490.46
	FillingsUpdate:  mu: -0.193099732  nElectrons: 331.000000
	SubspaceRotationAdjust: set factor to 0.101
ElecMinimize: Iter:  27  F: -1802.672902110806945  |grad|_K:  2.276e-07  alpha:  3.308e-01  linmin:  5.901e-06  t[s]:  47878.56
	FillingsUpdate:  mu: -0.193132031  nElectrons: 331.000000
	SubspaceRotationAdjust: set factor to 0.0922
ElecMinimize: Iter:  28  F: -1802.672902789224054  |grad|_K:  1.577e-07  alpha:  2.789e-01  linmin: -1.009e-07  t[s]:  48272.30
	FillingsUpdate:  mu: -0.193141172  nElectrons: 331.000000
	SubspaceRotationAdjust: set factor to 0.113
ElecMinimize: Iter:  29  F: -1802.672903325416883  |grad|_K:  1.277e-07  alpha:  4.589e-01  linmin:  3.657e-06  t[s]:  48660.73
	FillingsUpdate:  mu: -0.193156171  nElectrons: 331.000000
	SubspaceRotationAdjust: set factor to 0.132
ElecMinimize: Iter:  30  F: -1802.672903744904715  |grad|_K:  1.137e-07  alpha:  5.472e-01  linmin: -9.608e-06  t[s]:  49055.01
	FillingsUpdate:  mu: -0.193163339  nElectrons: 331.000000
	SubspaceRotationAdjust: set factor to 0.153
ElecMinimize: Iter:  31  F: -1802.672904063535952  |grad|_K:  9.376e-08  alpha:  5.232e-01  linmin: -7.119e-06  t[s]:  49449.52
	FillingsUpdate:  mu: -0.193151134  nElectrons: 331.000000
	SubspaceRotationAdjust: set factor to 0.151
ElecMinimize: Iter:  32  F: -1802.672904254089872  |grad|_K:  9.158e-08  alpha:  4.605e-01  linmin:  1.116e-05  t[s]:  49843.91
	FillingsUpdate:  mu: -0.193151139  nElectrons: 331.000000
	SubspaceRotationAdjust: set factor to 0.109
ElecMinimize: Iter:  33  F: -1802.672904326034995  |grad|_K:  7.834e-08  alpha:  1.846e-01  linmin: -2.563e-06  t[s]:  50234.38
	FillingsUpdate:  mu: -0.193145019  nElectrons: 331.000000
	SubspaceRotationAdjust: set factor to 0.105
ElecMinimize: Iter:  34  F: -1802.672904413640026  |grad|_K:  4.891e-08  alpha:  3.046e-01  linmin:  1.950e-05  t[s]:  50623.68
	FillingsUpdate:  mu: -0.193148020  nElectrons: 331.000000
	SubspaceRotationAdjust: set factor to 0.129
ElecMinimize: Iter:  35  F: -1802.672904459956726  |grad|_K:  3.375e-08  alpha:  4.121e-01  linmin: -5.153e-05  t[s]:  51016.88
	FillingsUpdate:  mu: -0.193151170  nElectrons: 331.000000
	SubspaceRotationAdjust: set factor to 0.128
ElecMinimize: Iter:  36  F: -1802.672904482295053  |grad|_K:  3.233e-08  alpha:  4.060e-01  linmin:  5.675e-05  t[s]:  51406.16
	FillingsUpdate:  mu: -0.193150052  nElectrons: 331.000000
	SubspaceRotationAdjust: set factor to 0.103
ElecMinimize: Iter:  37  F: -1802.672904493199212  |grad|_K:  2.673e-08  alpha:  2.213e-01  linmin:  3.702e-06  t[s]:  51788.70
	FillingsUpdate:  mu: -0.193150980  nElectrons: 331.000000
	SubspaceRotationAdjust: set factor to 0.138
ElecMinimize: Iter:  38  F: -1802.672904503817108  |grad|_K:  1.629e-08  alpha:  2.965e-01  linmin: -1.795e-04  t[s]:  52170.13
	FillingsUpdate:  mu: -0.193151978  nElectrons: 331.000000
	SubspaceRotationAdjust: set factor to 0.154
ElecMinimize: Iter:  39  F: -1802.672904510635362  |grad|_K:  1.685e-08  alpha:  4.991e-01  linmin: -3.187e-05  t[s]:  52557.65
	FillingsUpdate:  mu: -0.193152378  nElectrons: 331.000000
	SubspaceRotationAdjust: set factor to 0.129
ElecMinimize: Iter:  40  F: -1802.672904514627135  |grad|_K:  1.799e-08  alpha:  2.429e-01  linmin:  1.323e-05  t[s]:  52950.66
ElecMinimize: Converged (|Delta F|<1.000000e-08 for 2 iters).
Setting wave functions to eigenvectors of Hamiltonian

# Ionic positions in lattice coordinates:
ion O   0.500000000000000   0.368280927260902   0.307778843217275 1
ion C   0.500000000000000   0.496860957780350   0.271065609358091 1
ion H   0.500000000000000   0.628982847716943   0.297534222829847 1
ion Pt   0.000000000000000   0.000000000000000  -0.155941670000000 0
ion Pt   0.500000000000000   0.500000000000000  -0.155941670000000 0
ion Pt   0.000000000000000   0.500000000000000  -0.155941670000000 0
ion Pt   0.500000000000000   0.000000000000000  -0.155941670000000 0
ion Pt   0.750000000000000   0.250000000000000  -0.077970830000000 0
ion Pt   0.250000000000000   0.750000000000000  -0.077970830000000 0
ion Pt   0.250000000000000   0.250000000000000  -0.077970830000000 0
ion Pt   0.750000000000000   0.750000000000000  -0.077970830000000 0
ion Pt   0.500000000000000  -0.000018144868017   0.000088396753269 1
ion Pt   0.000000000000000  -0.000046335664387  -0.000039247846547 1
ion Pt   0.000000000000000   0.500037569127603   0.000054121900244 1
ion Pt   0.500000000000000   0.499993532762421  -0.000437083185328 1
ion Pt   0.750182811855867   0.249939732307167   0.082397298260630 1
ion Pt   0.249912379153247   0.750083936064174   0.082432979288214 1
ion Pt   0.249817188144133   0.249939732307167   0.082397298260630 1
ion Pt   0.750087620846753   0.750083936064174   0.082432979288214 1
ion Pt   0.000000000000000   0.000051580233855   0.156588539041109 1
ion Pt   0.000000000000000   0.499939453192270   0.156378518548460 1
ion Pt   0.500000000000000   0.000180291589656   0.156505489444132 1
ion Pt   0.500000000000000   0.500679374034504   0.155319810593818 1


# Forces in Lattice coordinates:
force O   0.000000000000000  -0.492959826545729   0.970624344592995 1
force C   0.000000000000000   0.438882370750329  -0.457480048869848 1
force H   0.000000000000000  -0.000164245918521   0.100256444774542 1
force Pt   0.000000000000000  -0.000061176533671  -0.136743255665897 0
force Pt   0.000000000000000   0.000756859363683  -0.444412701821661 0
force Pt   0.000000000000000   0.000049613582964  -0.138638983050342 0
force Pt   0.000000000000000  -0.000198444795581  -0.121554221045548 0
force Pt  -0.003495037564733   0.010718784054684  -1.031724803150315 0
force Pt   0.003252489487647  -0.011297103767759  -1.027303043527903 0
force Pt   0.003495037564733   0.010718784054684  -1.031724803150315 0
force Pt  -0.003252489487647  -0.011297103767759  -1.027303043527903 0
force Pt   0.000000000000000  -0.000038963051997   0.122457875796521 1
force Pt   0.000000000000000  -0.001403833762972   0.123291673369825 1
force Pt   0.000000000000000   0.001613147885604   0.109356411864145 1
force Pt   0.000000000000000  -0.001566209408259   0.035110314044964 1
force Pt   0.002432178559218  -0.007568320681869   0.694790697812839 1
force Pt  -0.005408918716081   0.016718498330116   0.696056668319251 1
force Pt  -0.002432178559218  -0.007568320681869   0.694790697812839 1
force Pt   0.005408918716081   0.016718498330116   0.696056668319251 1
force Pt   0.000000000000000   0.002150425481378   0.236621520427255 1
force Pt   0.000000000000000  -0.000994973319106   0.201479315092997 1
force Pt   0.000000000000000   0.006450383695585   0.220400176810265 1
force Pt   0.000000000000000   0.029465885594616   0.496549467076034 1

# Energy components:
   Eewald =   -11243.5713189927228086
       EH =    -9721.2873135032950813
     Eloc =    18845.8204028770305740
      Enl =      -17.7441376814047018
      Exc =     -572.0924554990886008
 Exc_core =      324.9288705130674657
       KE =      581.5085310567829993
-------------------------------------
     Etot =    -1802.4374212296315818
       TS =        0.2354832849954661
-------------------------------------
        F =    -1802.6729045146271346

IonicMinimize: Iter:   2  F: -1802.672904514627135  |grad|_K:  1.112e-02  alpha:  7.286e-01  linmin: -4.098e-01  t[s]:  53013.71

#--- Lowdin population analysis ---
# oxidation-state O -0.172
# oxidation-state C +0.251
# oxidation-state H +0.218
# oxidation-state Pt +0.072 +0.063 +0.075 +0.072 -0.045 -0.046 -0.045 -0.046 +0.013 +0.012 +0.014 -0.024 -0.042 -0.047 -0.042 -0.047 +0.066 +0.058 +0.063 -0.048


-------- Electronic minimization -----------
	FillingsUpdate:  mu: +0.033209740  nElectrons: 331.000000
ElecMinimize: Iter:   0  F: -1800.764345982283885  |grad|_K:  4.002e-04  alpha:  1.000e+00
	FillingsUpdate:  mu: -0.056911442  nElectrons: 331.000000
	SubspaceRotationAdjust: set factor to 0.0795
ElecMinimize: Iter:   1  F: -1801.977156768184841  |grad|_K:  2.906e-04  alpha:  1.999e-01  linmin:  2.520e-02  t[s]:  53700.77
	FillingsUpdate:  mu: -0.219598008  nElectrons: 331.000000
	SubspaceRotationAdjust: set factor to 0.162
ElecMinimize: Iter:   2  F: -1802.490055793776946  |grad|_K:  7.767e-05  alpha:  1.563e-01  linmin: -2.628e-04  t[s]:  54088.55
	FillingsUpdate:  mu: -0.192298845  nElectrons: 331.000000
	SubspaceRotationAdjust: set factor to 0.112
ElecMinimize: Iter:   3  F: -1802.563145964743399  |grad|_K:  6.341e-05  alpha:  2.586e-01  linmin:  1.114e-03  t[s]:  54474.99
	FillingsUpdate:  mu: -0.193592291  nElectrons: 331.000000
	SubspaceRotationAdjust: set factor to 0.0962
ElecMinimize: Iter:   4  F: -1802.588205501136827  |grad|_K:  2.668e-05  alpha:  1.336e-01  linmin: -8.381e-05  t[s]:  54857.39
ElecMinimize: 	Predicted alpha/alphaT>3.000000, increasing alphaT to 4.006771e-01.
	FillingsUpdate:  mu: -0.185708157  nElectrons: 331.000000
	SubspaceRotationAdjust: set factor to 0.133
ElecMinimize: Iter:   5  F: -1802.608711032886049  |grad|_K:  2.576e-05  alpha:  6.114e-01  linmin: -5.274e-05  t[s]:  55337.23
	FillingsUpdate:  mu: -0.179177870  nElectrons: 331.000000
	SubspaceRotationAdjust: set factor to 0.085
ElecMinimize: Iter:   6  F: -1802.623250419440410  |grad|_K:  3.707e-05  alpha:  4.584e-01  linmin:  8.784e-05  t[s]:  55723.52
	FillingsUpdate:  mu: -0.192616574  nElectrons: 331.000000
	SubspaceRotationAdjust: set factor to 0.0854
ElecMinimize: Iter:   7  F: -1802.639172128753444  |grad|_K:  2.444e-05  alpha:  2.570e-01  linmin:  9.268e-05  t[s]:  56113.11
	FillingsUpdate:  mu: -0.186669792  nElectrons: 331.000000
	SubspaceRotationAdjust: set factor to 0.0944
ElecMinimize: Iter:   8  F: -1802.656972502759118  |grad|_K:  2.124e-05  alpha:  6.407e-01  linmin: -6.734e-06  t[s]:  56504.46
	FillingsUpdate:  mu: -0.183363762  nElectrons: 331.000000
	SubspaceRotationAdjust: set factor to 0.0788
ElecMinimize: Iter:   9  F: -1802.668602849849094  |grad|_K:  2.367e-05  alpha:  5.442e-01  linmin:  1.070e-04  t[s]:  56892.79
	FillingsUpdate:  mu: -0.192933516  nElectrons: 331.000000
	SubspaceRotationAdjust: set factor to 0.0532
ElecMinimize: Iter:  10  F: -1802.675256314167427  |grad|_K:  1.585e-05  alpha:  2.649e-01  linmin:  1.413e-04  t[s]:  57279.55
	FillingsUpdate:  mu: -0.196154082  nElectrons: 331.000000
	SubspaceRotationAdjust: set factor to 0.0615
ElecMinimize: Iter:  11  F: -1802.679345064318113  |grad|_K:  9.002e-06  alpha:  3.530e-01  linmin:  6.335e-05  t[s]:  57669.48
	FillingsUpdate:  mu: -0.194419676  nElectrons: 331.000000
	SubspaceRotationAdjust: set factor to 0.0596
ElecMinimize: Iter:  12  F: -1802.680834116433289  |grad|_K:  6.369e-06  alpha:  3.932e-01  linmin:  1.755e-05  t[s]:  58055.02
	FillingsUpdate:  mu: -0.194197551  nElectrons: 331.000000
	SubspaceRotationAdjust: set factor to 0.0509
ElecMinimize: Iter:  13  F: -1802.681478318399058  |grad|_K:  3.926e-06  alpha:  3.384e-01  linmin: -1.794e-05  t[s]:  58439.39
	FillingsUpdate:  mu: -0.194636974  nElectrons: 331.000000
	SubspaceRotationAdjust: set factor to 0.058
ElecMinimize: Iter:  14  F: -1802.681752338957722  |grad|_K:  2.561e-06  alpha:  3.780e-01  linmin:  5.522e-06  t[s]:  58830.95
	FillingsUpdate:  mu: -0.194813862  nElectrons: 331.000000
	SubspaceRotationAdjust: set factor to 0.0699
ElecMinimize: Iter:  15  F: -1802.681878373558220  |grad|_K:  2.062e-06  alpha:  4.092e-01  linmin:  8.123e-07  t[s]:  59217.79
	FillingsUpdate:  mu: -0.194715788  nElectrons: 331.000000
	SubspaceRotationAdjust: set factor to 0.0744
ElecMinimize: Iter:  16  F: -1802.681977778718419  |grad|_K:  1.889e-06  alpha:  4.973e-01  linmin: -1.097e-05  t[s]:  59601.50
	FillingsUpdate:  mu: -0.194537548  nElectrons: 331.000000
	SubspaceRotationAdjust: set factor to 0.0726
ElecMinimize: Iter:  17  F: -1802.682047694706171  |grad|_K:  1.753e-06  alpha:  4.167e-01  linmin:  1.180e-06  t[s]:  59989.08
	FillingsUpdate:  mu: -0.194570798  nElectrons: 331.000000
	SubspaceRotationAdjust: set factor to 0.0818
ElecMinimize: Iter:  18  F: -1802.682123361293634  |grad|_K:  1.587e-06  alpha:  5.240e-01  linmin: -5.671e-06  t[s]:  60371.93
	FillingsUpdate:  mu: -0.194297844  nElectrons: 331.000000
	SubspaceRotationAdjust: set factor to 0.0946
ElecMinimize: Iter:  19  F: -1802.682196253171924  |grad|_K:  1.455e-06  alpha:  6.154e-01  linmin: -5.445e-06  t[s]:  60756.45
	FillingsUpdate:  mu: -0.193968760  nElectrons: 331.000000
	SubspaceRotationAdjust: set factor to 0.0844
ElecMinimize: Iter:  20  F: -1802.682236087712909  |grad|_K:  1.488e-06  alpha:  4.001e-01  linmin: -5.082e-07  t[s]:  61146.94
	FillingsUpdate:  mu: -0.193887045  nElectrons: 331.000000
	SubspaceRotationAdjust: set factor to 0.0741
ElecMinimize: Iter:  21  F: -1802.682270692884913  |grad|_K:  1.120e-06  alpha:  3.329e-01  linmin: -3.550e-06  t[s]:  61534.69
	FillingsUpdate:  mu: -0.193872186  nElectrons: 331.000000
	SubspaceRotationAdjust: set factor to 0.0857
ElecMinimize: Iter:  22  F: -1802.682300939707147  |grad|_K:  9.074e-07  alpha:  5.132e-01  linmin:  4.704e-06  t[s]:  61922.88
	FillingsUpdate:  mu: -0.193926916  nElectrons: 331.000000
	SubspaceRotationAdjust: set factor to 0.0963
ElecMinimize: Iter:  23  F: -1802.682319100633777  |grad|_K:  7.174e-07  alpha:  4.697e-01  linmin:  1.636e-06  t[s]:  62312.11
	FillingsUpdate:  mu: -0.193995704  nElectrons: 331.000000
	SubspaceRotationAdjust: set factor to 0.0845
ElecMinimize: Iter:  24  F: -1802.682328550633201  |grad|_K:  6.205e-07  alpha:  3.909e-01  linmin: -1.843e-06  t[s]:  62695.01
	FillingsUpdate:  mu: -0.193989687  nElectrons: 331.000000
	SubspaceRotationAdjust: set factor to 0.0636
ElecMinimize: Iter:  25  F: -1802.682333591235647  |grad|_K:  4.411e-07  alpha:  2.785e-01  linmin: -6.046e-07  t[s]:  63078.62
	FillingsUpdate:  mu: -0.194037216  nElectrons: 331.000000
	SubspaceRotationAdjust: set factor to 0.0725
ElecMinimize: Iter:  26  F: -1802.682337135956914  |grad|_K:  2.737e-07  alpha:  3.877e-01  linmin: -5.505e-07  t[s]:  63465.97
	FillingsUpdate:  mu: -0.194082342  nElectrons: 331.000000
	SubspaceRotationAdjust: set factor to 0.0811
ElecMinimize: Iter:  27  F: -1802.682338585030038  |grad|_K:  1.950e-07  alpha:  4.118e-01  linmin:  7.577e-06  t[s]:  63855.52
	FillingsUpdate:  mu: -0.194110015  nElectrons: 331.000000
	SubspaceRotationAdjust: set factor to 0.0774
ElecMinimize: Iter:  28  F: -1802.682339285372336  |grad|_K:  1.615e-07  alpha:  3.921e-01  linmin:  6.901e-06  t[s]:  64238.85
	FillingsUpdate:  mu: -0.194146069  nElectrons: 331.000000
	SubspaceRotationAdjust: set factor to 0.0732
ElecMinimize: Iter:  29  F: -1802.682339708109112  |grad|_K:  1.254e-07  alpha:  3.448e-01  linmin: -1.306e-05  t[s]:  64627.85
	FillingsUpdate:  mu: -0.194169290  nElectrons: 331.000000
	SubspaceRotationAdjust: set factor to 0.0898
ElecMinimize: Iter:  30  F: -1802.682340059682929  |grad|_K:  1.031e-07  alpha:  4.753e-01  linmin:  8.384e-07  t[s]:  65014.63
	FillingsUpdate:  mu: -0.194196546  nElectrons: 331.000000
	SubspaceRotationAdjust: set factor to 0.104
ElecMinimize: Iter:  31  F: -1802.682340374745991  |grad|_K:  1.025e-07  alpha:  6.345e-01  linmin:  2.306e-05  t[s]:  65399.98
	FillingsUpdate:  mu: -0.194215780  nElectrons: 331.000000
	SubspaceRotationAdjust: set factor to 0.0957
ElecMinimize: Iter:  32  F: -1802.682340585815155  |grad|_K:  1.099e-07  alpha:  4.287e-01  linmin:  6.256e-06  t[s]:  65786.06
	FillingsUpdate:  mu: -0.194213909  nElectrons: 331.000000
	SubspaceRotationAdjust: set factor to 0.0762
ElecMinimize: Iter:  33  F: -1802.682340745981264  |grad|_K:  8.124e-08  alpha:  2.815e-01  linmin:  7.872e-06  t[s]:  66168.22
	FillingsUpdate:  mu: -0.194211539  nElectrons: 331.000000
	SubspaceRotationAdjust: set factor to 0.0848
ElecMinimize: Iter:  34  F: -1802.682340891604554  |grad|_K:  6.424e-08  alpha:  4.656e-01  linmin: -3.578e-05  t[s]:  66555.77
	FillingsUpdate:  mu: -0.194208659  nElectrons: 331.000000
	SubspaceRotationAdjust: set factor to 0.0959
ElecMinimize: Iter:  35  F: -1802.682340980326217  |grad|_K:  4.758e-08  alpha:  4.522e-01  linmin: -1.573e-05  t[s]:  66941.38
	FillingsUpdate:  mu: -0.194201468  nElectrons: 331.000000
	SubspaceRotationAdjust: set factor to 0.0911
ElecMinimize: Iter:  36  F: -1802.682341022455148  |grad|_K:  3.988e-08  alpha:  3.944e-01  linmin: -5.430e-05  t[s]:  67324.74
	FillingsUpdate:  mu: -0.194198967  nElectrons: 331.000000
	SubspaceRotationAdjust: set factor to 0.0735
ElecMinimize: Iter:  37  F: -1802.682341044947407  |grad|_K:  3.186e-08  alpha:  2.910e-01  linmin: -1.457e-05  t[s]:  67715.61
	FillingsUpdate:  mu: -0.194193778  nElectrons: 331.000000
	SubspaceRotationAdjust: set factor to 0.0866
ElecMinimize: Iter:  38  F: -1802.682341063111835  |grad|_K:  2.014e-08  alpha:  3.807e-01  linmin: -1.134e-04  t[s]:  68103.41
	FillingsUpdate:  mu: -0.194191521  nElectrons: 331.000000
	SubspaceRotationAdjust: set factor to 0.104
ElecMinimize: Iter:  39  F: -1802.682341073010548  |grad|_K:  1.685e-08  alpha:  5.155e-01  linmin:  7.219e-05  t[s]:  68491.90
	FillingsUpdate:  mu: -0.194191783  nElectrons: 331.000000
	SubspaceRotationAdjust: set factor to 0.0991
ElecMinimize: Iter:  40  F: -1802.682341078585296  |grad|_K:  1.848e-08  alpha:  4.599e-01  linmin:  1.237e-04  t[s]:  68877.05
ElecMinimize: Converged (|Delta F|<1.000000e-08 for 2 iters).
Setting wave functions to eigenvectors of Hamiltonian

# Ionic positions in lattice coordinates:
ion O   0.500000000000000   0.366541515086400   0.309359911110533 1
ion C   0.500000000000000   0.496877897444472   0.272046279985281 1
ion H   0.500000000000000   0.629884967120455   0.298095687241117 1
ion Pt   0.000000000000000   0.000000000000000  -0.155941670000000 0
ion Pt   0.500000000000000   0.500000000000000  -0.155941670000000 0
ion Pt   0.000000000000000   0.500000000000000  -0.155941670000000 0
ion Pt   0.500000000000000   0.000000000000000  -0.155941670000000 0
ion Pt   0.750000000000000   0.250000000000000  -0.077970830000000 0
ion Pt   0.250000000000000   0.750000000000000  -0.077970830000000 0
ion Pt   0.250000000000000   0.250000000000000  -0.077970830000000 0
ion Pt   0.750000000000000   0.750000000000000  -0.077970830000000 0
ion Pt   0.500000000000000  -0.000023733069878   0.000451219400755 1
ion Pt   0.000000000000000  -0.000082184512713   0.000288935068020 1
ion Pt   0.000000000000000   0.500066689276395   0.000374731720197 1
ion Pt   0.500000000000000   0.499972037089576  -0.000428545826516 1
ion Pt   0.750295868531903   0.249833524327222   0.085562657355819 1
ion Pt   0.249755941853401   0.750317955383615   0.085612475674836 1
ion Pt   0.249704131468097   0.249833524327222   0.085562657355819 1
ion Pt   0.750244058146599   0.750317955383615   0.085612475674836 1
ion Pt   0.000000000000000   0.000097167258433   0.157427789123854 1
ion Pt   0.000000000000000   0.499902982985458   0.157064175733306 1
ion Pt   0.500000000000000   0.000326707372643   0.157280172687593 1
ion Pt   0.500000000000000   0.501115355036368   0.156334134189635 1


# Forces in Lattice coordinates:
force O   0.000000000000000  -0.095362872740466   0.462500158928261 1
force C   0.000000000000000   0.097147684396079   0.001217218030910 1
force H   0.000000000000000  -0.047292465540189   0.107032260326994 1
force Pt   0.000000000000000   0.000142730582764  -0.086691823530405 0
force Pt   0.000000000000000   0.001019397600826  -0.414952253651058 0
force Pt   0.000000000000000  -0.000032828883344  -0.088930250083565 0
force Pt   0.000000000000000  -0.000144410907095  -0.069758279039279 0
force Pt  -0.002406524803359   0.007837287173667  -0.851688529474414 0
force Pt   0.002614155655814  -0.009048967270572  -0.848715992999438 0
force Pt   0.002406524803359   0.007837287173667  -0.851688529474414 0
force Pt  -0.002614155655814  -0.009048967270572  -0.848715992999438 0
force Pt   0.000000000000000   0.000798844226910   0.169455570612055 1
force Pt   0.000000000000000   0.000239439239077   0.182360809814703 1
force Pt   0.000000000000000   0.001177214656739   0.164924510200190 1
force Pt   0.000000000000000  -0.001073691099548   0.201121244501195 1
force Pt  -0.002294936721710  -0.001213957370628   0.382473215911409 1
force Pt  -0.002394097269795   0.013372949974598   0.384219458001440 1
force Pt   0.002294936721710  -0.001213957370628   0.382473215911409 1
force Pt   0.002394097269795   0.013372949974598   0.384219458001440 1
force Pt   0.000000000000000   0.003370555751607   0.276991341399601 1
force Pt   0.000000000000000   0.000687502737075   0.244013042742664 1
force Pt   0.000000000000000   0.005372781848271   0.261312772055962 1
force Pt   0.000000000000000   0.011391513863923   0.494710856766221 1

# Energy components:
   Eewald =   -11296.4526983317664417
       EH =    -9774.2916139988610666
     Eloc =    18951.8127740925592661
      Enl =      -17.7669859370127341
      Exc =     -572.0285479488667306
 Exc_core =      324.9288728113324396
       KE =      581.3513586360269301
-------------------------------------
     Etot =    -1802.4468406765899999
       TS =        0.2355004019952929
-------------------------------------
        F =    -1802.6823410785852957

IonicMinimize: Iter:   3  F: -1802.682341078585296  |grad|_K:  5.786e-03  alpha:  4.824e-01  linmin: -4.769e-01  t[s]:  68939.90

#--- Lowdin population analysis ---
# oxidation-state O -0.180
# oxidation-state C +0.247
# oxidation-state H +0.219
# oxidation-state Pt +0.072 +0.064 +0.075 +0.072 -0.047 -0.047 -0.047 -0.047 +0.010 +0.010 +0.011 -0.027 -0.042 -0.047 -0.042 -0.047 +0.070 +0.062 +0.067 -0.042


-------- Electronic minimization -----------
	FillingsUpdate:  mu: +0.081764028  nElectrons: 331.000000
ElecMinimize: Iter:   0  F: -1800.460105913322423  |grad|_K:  4.289e-04  alpha:  1.000e+00
	FillingsUpdate:  mu: -0.049848895  nElectrons: 331.000000
	SubspaceRotationAdjust: set factor to 0.0574
ElecMinimize: Iter:   1  F: -1802.023791011300546  |grad|_K:  2.532e-04  alpha:  2.152e-01  linmin:  2.790e-02  t[s]:  69617.50
	FillingsUpdate:  mu: -0.218342942  nElectrons: 331.000000
	SubspaceRotationAdjust: set factor to 0.109
ElecMinimize: Iter:   2  F: -1802.499094276178539  |grad|_K:  6.639e-05  alpha:  1.840e-01  linmin: -2.619e-04  t[s]:  69998.93
	FillingsUpdate:  mu: -0.194921888  nElectrons: 331.000000
	SubspaceRotationAdjust: set factor to 0.095
ElecMinimize: Iter:   3  F: -1802.565968818661077  |grad|_K:  3.999e-05  alpha:  3.230e-01  linmin:  5.461e-04  t[s]:  70383.34
	FillingsUpdate:  mu: -0.190029730  nElectrons: 331.000000
	SubspaceRotationAdjust: set factor to 0.0765
ElecMinimize: Iter:   4  F: -1802.580789147264113  |grad|_K:  2.758e-05  alpha:  1.978e-01  linmin: -2.738e-06  t[s]:  70772.38
	FillingsUpdate:  mu: -0.187195101  nElectrons: 331.000000
	SubspaceRotationAdjust: set factor to 0.104
ElecMinimize: Iter:   5  F: -1802.600539540072532  |grad|_K:  2.575e-05  alpha:  5.560e-01  linmin:  1.582e-04  t[s]:  71156.07
	FillingsUpdate:  mu: -0.181192554  nElectrons: 331.000000
	SubspaceRotationAdjust: set factor to 0.0723
ElecMinimize: Iter:   6  F: -1802.622056400310612  |grad|_K:  3.427e-05  alpha:  7.047e-01  linmin:  3.565e-04  t[s]:  71545.57
	FillingsUpdate:  mu: -0.190460496  nElectrons: 331.000000
	SubspaceRotationAdjust: set factor to 0.057
ElecMinimize: Iter:   7  F: -1802.635523605457138  |grad|_K:  2.953e-05  alpha:  2.708e-01  linmin:  3.478e-04  t[s]:  71936.22
	FillingsUpdate:  mu: -0.187824994  nElectrons: 331.000000
	SubspaceRotationAdjust: set factor to 0.0623
ElecMinimize: Iter:   8  F: -1802.657243911254682  |grad|_K:  2.503e-05  alpha:  5.621e-01  linmin:  1.371e-04  t[s]:  72321.67
	FillingsUpdate:  mu: -0.181752393  nElectrons: 331.000000
	SubspaceRotationAdjust: set factor to 0.0578
ElecMinimize: Iter:   9  F: -1802.671532965209735  |grad|_K:  2.503e-05  alpha:  4.922e-01  linmin:  1.477e-04  t[s]:  72709.53
	FillingsUpdate:  mu: -0.193594340  nElectrons: 331.000000
	SubspaceRotationAdjust: set factor to 0.0549
ElecMinimize: Iter:  10  F: -1802.680903692591301  |grad|_K:  1.571e-05  alpha:  3.287e-01  linmin: -2.629e-06  t[s]:  73094.69
	FillingsUpdate:  mu: -0.194476955  nElectrons: 331.000000
	SubspaceRotationAdjust: set factor to 0.06
ElecMinimize: Iter:  11  F: -1802.685027349612255  |grad|_K:  9.651e-06  alpha:  3.554e-01  linmin: -1.518e-05  t[s]:  73481.00
	FillingsUpdate:  mu: -0.193361497  nElectrons: 331.000000
	SubspaceRotationAdjust: set factor to 0.0516
[...]
FluidMinimize: Iter:   5  G: -0.033943193665123  |grad|_K:  5.368e-06  alpha:  2.314e-02  linmin: -7.967e-04  cgtest: -2.347e-01  t[s]:  38277.37
FluidMinimize: Iter:   6  G: -0.033943614513944  |grad|_K:  7.436e-06  alpha:  1.504e-02  linmin:  2.101e-05  cgtest: -6.221e-03  t[s]:  38277.94
FluidMinimize: Iter:   7  G: -0.033944096049606  |grad|_K:  7.928e-06  alpha:  8.923e-03  linmin: -3.218e-04  cgtest:  2.060e-02  t[s]:  38278.49
FluidMinimize: Converged (|Delta G|<8.589204e-07 for 2 iters).

Fluid minimization # 9 changed total free energy by -1.551669e-05 at t[s]:  38278.80

-------------------- Electronic Minimization # 9 ---------------------
	FillingsUpdate:  mu: -0.173600000  nElectrons: 331.159987
ElecMinimize: Iter:   0  G: -1745.237051124692243  |grad|_K:  8.788e-07  alpha:  1.000e+00
	FillingsUpdate:  mu: -0.173600000  nElectrons: 331.164199
	SubspaceRotationAdjust: set factor to 0.0173
ElecMinimize: Iter:   1  G: -1745.237063602790386  |grad|_K:  5.769e-07  alpha:  3.440e-01  linmin:  1.508e-04  t[s]:  38827.12
	FillingsUpdate:  mu: -0.173600000  nElectrons: 331.161120
	SubspaceRotationAdjust: set factor to 0.0132
ElecMinimize: Iter:   2  G: -1745.237067873203159  |grad|_K:  3.444e-07  alpha:  2.732e-01  linmin: -1.221e-05  t[s]:  39205.91
	FillingsUpdate:  mu: -0.173600000  nElectrons: 331.161874
	SubspaceRotationAdjust: set factor to 0.0186
ElecMinimize: Iter:   3  G: -1745.237070637132547  |grad|_K:  2.571e-07  alpha:  4.961e-01  linmin:  8.290e-06  t[s]:  39591.59
	FillingsUpdate:  mu: -0.173600000  nElectrons: 331.163171
	SubspaceRotationAdjust: set factor to 0.0192
ElecMinimize: Iter:   4  G: -1745.237072336506117  |grad|_K:  2.487e-07  alpha:  5.474e-01  linmin:  4.252e-06  t[s]:  39980.07
	FillingsUpdate:  mu: -0.173600000  nElectrons: 331.161930
	SubspaceRotationAdjust: set factor to 0.0166
ElecMinimize: Iter:   5  G: -1745.237073910925574  |grad|_K:  2.331e-07  alpha:  5.419e-01  linmin:  3.561e-05  t[s]:  40369.77
	FillingsUpdate:  mu: -0.173600000  nElectrons: 331.162903
	SubspaceRotationAdjust: set factor to 0.0164
ElecMinimize: Iter:   6  G: -1745.237075120803411  |grad|_K:  1.780e-07  alpha:  4.740e-01  linmin: -2.909e-05  t[s]:  40760.32
	FillingsUpdate:  mu: -0.173600000  nElectrons: 331.163063
	SubspaceRotationAdjust: set factor to 0.0197
ElecMinimize: Iter:   7  G: -1745.237075867120893  |grad|_K:  1.192e-07  alpha:  5.010e-01  linmin:  1.535e-05  t[s]:  41149.10
	FillingsUpdate:  mu: -0.173600000  nElectrons: 331.162547
	SubspaceRotationAdjust: set factor to 0.0178
ElecMinimize: Iter:   8  G: -1745.237076163244865  |grad|_K:  9.092e-08  alpha:  4.433e-01  linmin:  1.492e-05  t[s]:  41537.37
ElecMinimize: Converged (|Delta G|<8.589204e-07 for 2 iters).
Setting wave functions to eigenvectors of Hamiltonian

Electronic minimization # 9 changed total free energy by -1.110068e-05 at t[s]:  41553.88

---------------------- Fluid Minimization # 10 -----------------------
FluidMinimize: Iter:   0  G: -0.035411144418133  |grad|_K:  3.019e-05  alpha:  1.000e+00
FluidMinimize: Iter:   1  G: -0.035411278032485  |grad|_K:  2.981e-05  alpha:  7.622e-05  linmin: -1.547e-01  cgtest:  1.000e+00  t[s]:  41554.74
FluidMinimize: Encountered beta<0, resetting CG.
FluidMinimize: 	Predicted alpha/alphaT>3.000000, increasing alphaT to 2.286725e-04.
FluidMinimize: 	Predicted alpha/alphaT>3.000000, increasing alphaT to 6.860176e-04.
FluidMinimize: 	Predicted alpha/alphaT>3.000000, increasing alphaT to 2.058053e-03.
FluidMinimize: Iter:   2  G: -0.035416400826290  |grad|_K:  1.017e-05  alpha:  5.968e-03  linmin:  6.558e-04  cgtest: -7.825e-03  t[s]:  41556.03
FluidMinimize: Iter:   3  G: -0.035417115192296  |grad|_K:  9.840e-06  alpha:  7.156e-03  linmin:  2.119e-04  cgtest: -2.931e-03  t[s]:  41556.59
FluidMinimize: Iter:   4  G: -0.035417687193846  |grad|_K:  5.599e-06  alpha:  6.089e-03  linmin:  1.125e-03  cgtest: -4.300e-03  t[s]:  41557.14
FluidMinimize: 	Predicted alpha/alphaT>3.000000, increasing alphaT to 1.826564e-02.
FluidMinimize: 	Predicted alpha/alphaT>3.000000, increasing alphaT to 5.479692e-02.
FluidMinimize: Iter:   5  G: -0.035419820906542  |grad|_K:  5.314e-06  alpha:  7.103e-02  linmin:  4.382e-04  cgtest:  8.200e-02  t[s]:  41558.19
FluidMinimize: Iter:   6  G: -0.035420597024446  |grad|_K:  8.804e-06  alpha:  2.924e-02  linmin:  2.599e-03  cgtest: -1.273e-02  t[s]:  41558.75
FluidMinimize: Iter:   7  G: -0.035420965404385  |grad|_K:  5.216e-06  alpha:  4.650e-03  linmin: -1.053e-02  cgtest:  1.560e-01  t[s]:  41559.31
FluidMinimize: Iter:   8  G: -0.035421167370113  |grad|_K:  3.956e-06  alpha:  7.308e-03  linmin: -6.131e-05  cgtest: -8.983e-02  t[s]:  41559.87
FluidMinimize: 	Predicted alpha/alphaT>3.000000, increasing alphaT to 2.192502e-02.
FluidMinimize: Iter:   9  G: -0.035421788169393  |grad|_K:  8.577e-06  alpha:  4.128e-02  linmin:  1.242e-03  cgtest:  8.280e-02  t[s]:  41560.68
FluidMinimize: Iter:  10  G: -0.035422109202127  |grad|_K:  4.405e-06  alpha:  4.894e-03  linmin:  5.698e-03  cgtest: -7.064e-02  t[s]:  41561.24
FluidMinimize: Iter:  11  G: -0.035422275356255  |grad|_K:  4.852e-06  alpha:  9.478e-03  linmin:  5.663e-05  cgtest:  8.064e-02  t[s]:  41561.81
FluidMinimize: 	Predicted alpha/alphaT>3.000000, increasing alphaT to 2.843438e-02.
FluidMinimize: Iter:  12  G: -0.035423042788305  |grad|_K:  7.250e-06  alpha:  3.360e-02  linmin: -1.204e-03  cgtest: -1.645e-01  t[s]:  41562.60
FluidMinimize: Iter:  13  G: -0.035423289631998  |grad|_K:  4.990e-06  alpha:  4.569e-03  linmin: -4.091e-03  cgtest:  3.215e-02  t[s]:  41563.17
FluidMinimize: 	Predicted alpha/alphaT>3.000000, increasing alphaT to 1.370758e-02.
FluidMinimize: Iter:  14  G: -0.035423798294191  |grad|_K:  4.218e-06  alpha:  2.033e-02  linmin:  8.549e-04  cgtest: -1.035e-01  t[s]:  41563.99
FluidMinimize: Iter:  15  G: -0.035424143271229  |grad|_K:  6.652e-06  alpha:  2.019e-02  linmin:  4.096e-04  cgtest:  3.075e-02  t[s]:  41564.55
FluidMinimize: Iter:  16  G: -0.035424385510909  |grad|_K:  4.442e-06  alpha:  5.803e-03  linmin:  1.899e-03  cgtest: -2.583e-02  t[s]:  41565.10
FluidMinimize: Iter:  17  G: -0.035424529070007  |grad|_K:  3.548e-06  alpha:  7.668e-03  linmin:  3.452e-04  cgtest:  3.270e-02  t[s]:  41565.65
FluidMinimize: 	Predicted alpha/alphaT>3.000000, increasing alphaT to 2.300527e-02.
FluidMinimize: Iter:  18  G: -0.035425148311749  |grad|_K:  6.679e-06  alpha:  5.059e-02  linmin: -1.664e-03  cgtest: -1.195e-02  t[s]:  41566.45
FluidMinimize: Iter:  19  G: -0.035425338787643  |grad|_K:  3.979e-06  alpha:  4.126e-03  linmin: -4.749e-03  cgtest:  4.894e-02  t[s]:  41567.01
FluidMinimize: 	Predicted alpha/alphaT>3.000000, increasing alphaT to 1.237729e-02.
FluidMinimize: Iter:  20  G: -0.035425586001939  |grad|_K:  3.370e-06  alpha:  1.544e-02  linmin: -5.061e-05  cgtest: -8.908e-02  t[s]:  41567.81
FluidMinimize: Iter:  21  G: -0.035425736318225  |grad|_K:  5.037e-06  alpha:  1.366e-02  linmin:  2.701e-04  cgtest:  2.397e-02  t[s]:  41568.40
FluidMinimize: Iter:  22  G: -0.035425956401101  |grad|_K:  5.157e-06  alpha:  8.999e-03  linmin:  5.534e-07  cgtest:  1.824e-02  t[s]:  41568.95
FluidMinimize: Iter:  23  G: -0.035426192698646  |grad|_K:  3.561e-06  alpha:  9.181e-03  linmin: -5.428e-04  cgtest: -1.926e-02  t[s]:  41569.52
FluidMinimize: Iter:  24  G: -0.035426510793382  |grad|_K:  7.721e-06  alpha:  2.557e-02  linmin: -1.607e-03  cgtest: -3.247e-03  t[s]:  41570.08
FluidMinimize: Iter:  25  G: -0.035426919861844  |grad|_K:  4.395e-06  alpha:  6.871e-03  linmin: -1.569e-03  cgtest: -4.907e-02  t[s]:  41570.64
FluidMinimize: Iter:  26  G: -0.035427142655240  |grad|_K:  3.851e-06  alpha:  1.179e-02  linmin:  8.161e-04  cgtest: -1.395e-02  t[s]:  41571.19
FluidMinimize: Iter:  27  G: -0.035427265881837  |grad|_K:  4.168e-06  alpha:  8.630e-03  linmin:  5.735e-05  cgtest:  2.622e-02  t[s]:  41571.76
FluidMinimize: Iter:  28  G: -0.035427436215748  |grad|_K:  5.031e-06  alpha:  1.014e-02  linmin: -2.748e-04  cgtest: -3.508e-03  t[s]:  41572.32
FluidMinimize: Iter:  29  G: -0.035427899514628  |grad|_K:  4.769e-06  alpha:  1.917e-02  linmin:  3.280e-03  cgtest: -1.820e-02  t[s]:  41572.88
FluidMinimize: Iter:  30  G: -0.035428033473032  |grad|_K:  4.775e-06  alpha:  6.348e-03  linmin:  5.297e-04  cgtest:  3.718e-02  t[s]:  41573.44
FluidMinimize: Iter:  31  G: -0.035428427307524  |grad|_K:  5.481e-06  alpha:  1.783e-02  linmin: -1.077e-03  cgtest: -5.035e-02  t[s]:  41574.01
FluidMinimize: Iter:  32  G: -0.035428678130992  |grad|_K:  4.861e-06  alpha:  8.655e-03  linmin:  9.230e-04  cgtest: -5.903e-02  t[s]:  41574.57
FluidMinimize: Iter:  33  G: -0.035428843074286  |grad|_K:  4.009e-06  alpha:  7.279e-03  linmin:  9.255e-05  cgtest:  1.512e-02  t[s]:  41575.15
FluidMinimize: Iter:  34  G: -0.035429009755488  |grad|_K:  3.622e-06  alpha:  1.073e-02  linmin:  1.633e-04  cgtest: -4.344e-03  t[s]:  41575.71
FluidMinimize: Iter:  35  G: -0.035429269376752  |grad|_K:  7.136e-06  alpha:  2.062e-02  linmin:  7.578e-04  cgtest:  4.574e-03  t[s]:  41576.27
FluidMinimize: Iter:  36  G: -0.035429622723998  |grad|_K:  3.897e-06  alpha:  7.539e-03  linmin:  1.696e-03  cgtest:  1.751e-02  t[s]:  41576.82
FluidMinimize: Iter:  37  G: -0.035429838685785  |grad|_K:  5.126e-06  alpha:  1.502e-02  linmin: -2.428e-04  cgtest:  2.192e-02  t[s]:  41577.39
FluidMinimize: Iter:  38  G: -0.035430069659912  |grad|_K:  5.570e-06  alpha:  9.109e-03  linmin:  8.491e-05  cgtest: -3.513e-02  t[s]:  41577.94
FluidMinimize: Iter:  39  G: -0.035430373751202  |grad|_K:  4.705e-06  alpha:  1.017e-02  linmin:  7.880e-04  cgtest: -9.756e-03  t[s]:  41578.51
FluidMinimize: Iter:  40  G: -0.035430600528203  |grad|_K:  3.049e-06  alpha:  1.072e-02  linmin:  8.559e-05  cgtest:  7.599e-02  t[s]:  41579.06
FluidMinimize: Iter:  41  G: -0.035430659603077  |grad|_K:  3.259e-06  alpha:  6.561e-03  linmin: -2.082e-05  cgtest:  3.651e-03  t[s]:  41579.63
FluidMinimize: 	Predicted alpha/alphaT>3.000000, increasing alphaT to 1.968154e-02.
FluidMinimize: Iter:  42  G: -0.035430940913447  |grad|_K:  4.995e-06  alpha:  2.736e-02  linmin: -3.487e-05  cgtest:  5.112e-03  t[s]:  41580.44
FluidMinimize: Iter:  43  G: -0.035431209540359  |grad|_K:  5.153e-06  alpha:  1.099e-02  linmin: -5.626e-04  cgtest:  2.025e-02  t[s]:  41581.00
FluidMinimize: Iter:  44  G: -0.035431428884754  |grad|_K:  5.356e-06  alpha:  8.489e-03  linmin: -1.434e-04  cgtest: -1.152e-02  t[s]:  41581.56
FluidMinimize: Iter:  45  G: -0.035431709175042  |grad|_K:  3.872e-06  alpha:  1.007e-02  linmin: -2.859e-04  cgtest:  1.431e-03  t[s]:  41582.12
FluidMinimize: Iter:  46  G: -0.035431932315680  |grad|_K:  4.759e-06  alpha:  1.525e-02  linmin: -1.152e-03  cgtest: -6.442e-04  t[s]:  41582.68
FluidMinimize: Iter:  47  G: -0.035432047762249  |grad|_K:  2.500e-06  alpha:  5.097e-03  linmin: -1.685e-03  cgtest: -4.625e-03  t[s]:  41583.24
FluidMinimize: 	Predicted alpha/alphaT>3.000000, increasing alphaT to 1.529146e-02.
FluidMinimize: Iter:  48  G: -0.035432170166505  |grad|_K:  4.344e-06  alpha:  1.992e-02  linmin:  1.515e-04  cgtest: -5.824e-03  t[s]:  41584.03
FluidMinimize: Converged (|Delta G|<1.551669e-07 for 2 iters).

Fluid minimization # 10 changed total free energy by -2.102575e-05 at t[s]:  41584.35

-------------------- Electronic Minimization # 10 ---------------------
	FillingsUpdate:  mu: -0.173600000  nElectrons: 331.259336
ElecMinimize: Iter:   0  G: -1745.235565253974983  |grad|_K:  1.344e-05  alpha:  1.000e+00
	FillingsUpdate:  mu: -0.173600000  nElectrons: 331.177936
	SubspaceRotationAdjust: set factor to 0.0393
ElecMinimize: Iter:   1  G: -1745.237061953405373  |grad|_K:  1.463e-06  alpha:  1.771e-01  linmin:  3.359e-03  t[s]:  42135.13
	FillingsUpdate:  mu: -0.173600000  nElectrons: 331.173265
	SubspaceRotationAdjust: set factor to 0.0541
ElecMinimize: Iter:   2  G: -1745.237097510220337  |grad|_K:  5.810e-07  alpha:  3.544e-01  linmin: -2.593e-04  t[s]:  42523.72
	FillingsUpdate:  mu: -0.173600000  nElectrons: 331.170297
	SubspaceRotationAdjust: set factor to 0.044
ElecMinimize: Iter:   3  G: -1745.237103386098397  |grad|_K:  4.662e-07  alpha:  3.703e-01  linmin: -3.404e-05  t[s]:  42908.68
	FillingsUpdate:  mu: -0.173600000  nElectrons: 331.172245
	SubspaceRotationAdjust: set factor to 0.0281
ElecMinimize: Iter:   4  G: -1745.237104642691293  |grad|_K:  3.554e-07  alpha:  1.231e-01  linmin:  2.738e-05  t[s]:  43297.01
	FillingsUpdate:  mu: -0.173600000  nElectrons: 331.171524
	SubspaceRotationAdjust: set factor to 0.046
ElecMinimize: Iter:   5  G: -1745.237106615494213  |grad|_K:  2.073e-07  alpha:  3.335e-01  linmin:  4.540e-04  t[s]:  43684.79
	FillingsUpdate:  mu: -0.173600000  nElectrons: 331.170210
	SubspaceRotationAdjust: set factor to 0.029
ElecMinimize: Iter:   6  G: -1745.237107379357894  |grad|_K:  2.660e-07  alpha:  3.796e-01  linmin:  1.411e-05  t[s]:  44074.79
	FillingsUpdate:  mu: -0.173600000  nElectrons: 331.171293
	SubspaceRotationAdjust: set factor to 0.0212
ElecMinimize: Iter:   7  G: -1745.237107891477535  |grad|_K:  1.400e-07  alpha:  1.542e-01  linmin: -1.173e-05  t[s]:  44465.69
ElecMinimize: 	Predicted alpha/alphaT>3.000000, increasing alphaT to 4.624552e-01.
	FillingsUpdate:  mu: -0.173600000  nElectrons: 331.171438
	SubspaceRotationAdjust: set factor to 0.0284
ElecMinimize: Iter:   8  G: -1745.237108390398816  |grad|_K:  1.187e-07  alpha:  5.415e-01  linmin: -2.245e-05  t[s]:  44944.53
	FillingsUpdate:  mu: -0.173600000  nElectrons: 331.170836
	SubspaceRotationAdjust: set factor to 0.0233
ElecMinimize: Iter:   9  G: -1745.237108669696227  |grad|_K:  1.206e-07  alpha:  4.217e-01  linmin:  4.205e-05  t[s]:  45336.04
	FillingsUpdate:  mu: -0.173600000  nElectrons: 331.171551
	SubspaceRotationAdjust: set factor to 0.0186
ElecMinimize: Iter:  10  G: -1745.237108874950536  |grad|_K:  9.183e-08  alpha:  3.007e-01  linmin: -2.139e-05  t[s]:  45719.96
	FillingsUpdate:  mu: -0.173600000  nElectrons: 331.171555
	SubspaceRotationAdjust: set factor to 0.0228
ElecMinimize: Iter:  11  G: -1745.237109099711915  |grad|_K:  7.744e-08  alpha:  5.717e-01  linmin:  2.245e-04  t[s]:  46108.89
	FillingsUpdate:  mu: -0.173600000  nElectrons: 331.171326
	SubspaceRotationAdjust: set factor to 0.0224
ElecMinimize: Iter:  12  G: -1745.237109244945486  |grad|_K:  6.710e-08  alpha:  5.202e-01  linmin: -8.215e-06  t[s]:  46500.72
	FillingsUpdate:  mu: -0.173600000  nElectrons: 331.171710
	SubspaceRotationAdjust: set factor to 0.0173
ElecMinimize: Iter:  13  G: -1745.237109322284596  |grad|_K:  5.539e-08  alpha:  3.660e-01  linmin:  1.041e-04  t[s]:  46889.20
ElecMinimize: Converged (|Delta G|<1.551669e-07 for 2 iters).
Setting wave functions to eigenvectors of Hamiltonian

Electronic minimization # 10 changed total free energy by -1.213329e-05 at t[s]:  46906.27

Fluid<-->Electron self-consistency loop not yet converged to 1.000000e-05 hartrees after 10 minimization pairs at t[s]:  46906.27.

# Ionic positions in lattice coordinates:
ion O   0.500000000000000   0.365407440914348   0.314208152359549 1
ion C   0.500000000000000   0.496311658302855   0.276495979261035 1
ion H   0.500000000000000   0.628786403510133   0.300017503452082 1
ion Pt   0.000000000000000   0.000000000000000  -0.155941670000000 0
ion Pt   0.500000000000000   0.500000000000000  -0.155941670000000 0
ion Pt   0.000000000000000   0.500000000000000  -0.155941670000000 0
ion Pt   0.500000000000000   0.000000000000000  -0.155941670000000 0
ion Pt   0.750000000000000   0.250000000000000  -0.077970830000000 0
ion Pt   0.250000000000000   0.750000000000000  -0.077970830000000 0
ion Pt   0.250000000000000   0.250000000000000  -0.077970830000000 0
ion Pt   0.750000000000000   0.750000000000000  -0.077970830000000 0
ion Pt   0.500000000000000   0.000026657420041   0.002438032435347 1
ion Pt   0.000000000000000  -0.000025471113995   0.002371256957378 1
ion Pt   0.000000000000000   0.500156267198410   0.002346112359747 1
ion Pt   0.500000000000000   0.499966214659309   0.002210475273398 1
ion Pt   0.749898608102046   0.250063374217095   0.091085846483234 1
ion Pt   0.249766155068349   0.750758432749139   0.091129491073497 1
ion Pt   0.250101391897954   0.250063374217095   0.091085846483234 1
ion Pt   0.750233844931651   0.750758432749139   0.091129491073497 1
ion Pt   0.000000000000000   0.000424748740733   0.161237922032894 1
ion Pt   0.000000000000000   0.500013722010868   0.160301470715767 1
ion Pt   0.500000000000000   0.000664736919516   0.160820186160090 1
ion Pt   0.500000000000000   0.501692294765136   0.159537306454033 1


# Forces in Lattice coordinates:
force O   0.000000000000000  -0.001748986710290   0.386413350440385 1
force C   0.000000000000000  -0.076571956902444  -0.354704302688217 1
force H   0.000000000000000   0.058192809871503   0.287982948012302 1
force Pt   0.000000000000000   0.000268198213246   0.086306702858202 0
force Pt   0.000000000000000   0.001394484743394  -0.172465615098661 0
force Pt   0.000000000000000  -0.000055992135658   0.083190392401814 0
force Pt   0.000000000000000  -0.000399115146189   0.096565495237886 0
force Pt  -0.004199247484372   0.012035167116649  -0.555261106877391 0
force Pt   0.005112635527276  -0.012784657583640  -0.554257564482998 0
force Pt   0.004199247484372   0.012035167116649  -0.555261106877391 0
force Pt  -0.005112635527276  -0.012784657583640  -0.554257564482998 0
force Pt   0.000000000000000   0.002572360490239   0.147185461121206 1
force Pt   0.000000000000000   0.003486726113794   0.168692548909270 1
force Pt   0.000000000000000   0.000524161704558   0.142154691049701 1
force Pt   0.000000000000000   0.001891627869139   0.055500575095274 1
force Pt   0.006357257770927  -0.014782723933171   0.003738539824971 1
force Pt  -0.007959235484409   0.023240651157174  -0.000660128591580 1
force Pt  -0.006357257770927  -0.014782723933171   0.003738539824971 1
force Pt   0.007959235484409   0.023240651157174  -0.000660128591580 1
force Pt   0.000000000000000   0.004136112585516   0.174950640536062 1
force Pt   0.000000000000000   0.007177074053165   0.190216633015439 1
force Pt   0.000000000000000  -0.001718330372011   0.176762984756691 1
force Pt   0.000000000000000  -0.012141098670602   0.729162506282285 1

# Energy components:
   A_diel =       -0.0372124647947224
   Eewald =    12861.1995008116191457
       EH =    14464.9059894552574406
     Eloc =   -29444.8447792813458364
      Enl =      -17.8091025510616312
      Exc =     -571.9433618584268970
 Exc_core =      324.9288437037855601
       KE =      581.1138474513245455
  MuShift =       -0.0057803569018577
-------------------------------------
     Etot =    -1802.4920550905437722
       TS =        0.2364631008972140
-------------------------------------
        F =    -1802.7285181914410259
      muN =      -57.4914088691564871
-------------------------------------
        G =    -1745.2371093222845957

IonicMinimize: Iter:   0  G: -1745.237109322284596  |grad|_K:  5.003e-03  t[s]:  46951.99
IonicMinimize: None of the convergence criteria satisfied after 0 iterations.

#--- Lowdin population analysis ---
# oxidation-state O -0.237
# oxidation-state C +0.255
# oxidation-state H +0.252
# oxidation-state Pt +0.055 +0.042 +0.057 +0.055 -0.051 -0.051 -0.051 -0.051 +0.005 +0.005 +0.008 -0.029 -0.046 -0.050 -0.046 -0.050 +0.048 +0.062 +0.050 -0.043


Dumping '110_2-Solvated.ionpos' ... done
Dumping '110_2-Solvated.n' ... done
Dumping '110_2-Solvated.eigStats' ... 
	eMin: -2.129059 at state 0 ( [ +0.000000 +0.000000 +0.000000 ] spin 0 )
	HOMO: -0.173593 at state 5 ( [ +0.250000 +0.500000 +0.000000 ] spin 0 )
	mu  : -0.173600
	LUMO: -0.173327 at state 0 ( [ +0.000000 +0.000000 +0.000000 ] spin 0 )
	eMax: +0.353134 at state 8 ( [ +0.500000 +0.500000 +0.000000 ] spin 0 )
	HOMO-LUMO gap: +0.000266
	Optical gap  : +0.000319 at state 4 ( [ +0.250000 +0.250000 +0.000000 ] spin 0 )
Dumping '110_2-Solvated.Ecomponents' ... done
End date and time: Fri Apr 26 14:14:45 2019  (Duration: 0-13:03:28.40)
Done!
