
*************** JDFTx 1.4.2  ***************

Start date and time: Tue Mar 26 00:47:20 2019
Executable jdftx with command-line: -i Charged.in
Running on hosts (process indices):  Juans-MBP.lan1 (0-3)
Divided in process groups (process indices):  0 (0)  1 (1)  2 (2)  3 (3)
Resource initialization completed at t[s]:      0.00
Run totals: 4 processes, 12 threads, 0 GPUs


Input parsed successfully to the following command list (including defaults):

basis kpoint-dependent
coords-type Lattice
core-overlap-check vector
coulomb-interaction Slab 001
coulomb-truncation-embed 0 0 0
davidson-band-ratio 1.1
dump End State BoundCharge
dump-name common.$VAR
elec-cutoff 20 100
elec-eigen-algo Davidson
elec-ex-corr gga-PBEsol
elec-smearing Fermi 0.01
electronic-minimize  \
	dirUpdateScheme      FletcherReeves \
	linminMethod         DirUpdateRecommended \
	nIterations          200 \
	history              15 \
	knormThreshold       0 \
	energyDiffThreshold  1e-08 \
	nEnergyDiff          2 \
	alphaTstart          1 \
	alphaTmin            1e-10 \
	updateTestStepSize   yes \
	alphaTreduceFactor   0.1 \
	alphaTincreaseFactor 3 \
	nAlphaAdjustMax      3 \
	wolfeEnergy          0.0001 \
	wolfeGradient        0.9 \
	fdTest               no
exchange-regularization WignerSeitzTruncated
fluid LinearPCM 298.000000 1.013250
fluid-anion ClO4- 1 MeanFieldLJ \
	epsBulk 1 \
	pMol 0 \
	epsInf 1 \
	Pvap 0 \
	sigmaBulk 0 \
	Rvdw 4.55424 \
	Res 0
fluid-cation K+ 1 MeanFieldLJ \
	epsBulk 1 \
	pMol 0 \
	epsInf 1 \
	Pvap 0 \
	sigmaBulk 0 \
	Rvdw 2.85349 \
	Res 0
fluid-ex-corr lda-TF lda-PZ
fluid-gummel-loop 10 1.000000e-05
fluid-minimize  \
	dirUpdateScheme      PolakRibiere \
	linminMethod         DirUpdateRecommended \
	nIterations          400 \
	history              15 \
	knormThreshold       1e-11 \
	energyDiffThreshold  0 \
	nEnergyDiff          2 \
	alphaTstart          1 \
	alphaTmin            1e-10 \
	updateTestStepSize   yes \
	alphaTreduceFactor   0.1 \
	alphaTincreaseFactor 3 \
	nAlphaAdjustMax      6 \
	wolfeEnergy          0.0001 \
	wolfeGradient        0.9 \
	fdTest               no
fluid-solvent H2O 55.338 ScalarEOS \
	epsBulk 78.4 \
	pMol 0.92466 \
	epsInf 1.77 \
	Pvap 1.06736e-10 \
	sigmaBulk 4.62e-05 \
	Rvdw 2.61727 \
	Res 1.42
forces-output-coords Positions
initial-state common.$VAR
ion Pt   0.333333000000000  -0.333333000000000  -0.237676000000000 1
ion Pt  -0.333333000000000   0.333333000000000  -0.118838000000000 1
ion Pt   0.000000000000000   0.000000000000000   0.000000000000000 1
ion Pt   0.333333000000000  -0.333333000000000   0.118838000000000 1
ion Pt  -0.333333000000000   0.333333000000000   0.237676000000000 1
ion-species GBRV/$ID_pbesol.uspp
ion-width Ecut
ionic-minimize  \
	dirUpdateScheme      L-BFGS \
	linminMethod         DirUpdateRecommended \
	nIterations          0 \
	history              15 \
	knormThreshold       0.0001 \
	energyDiffThreshold  1e-06 \
	nEnergyDiff          2 \
	alphaTstart          1 \
	alphaTmin            1e-10 \
	updateTestStepSize   yes \
	alphaTreduceFactor   0.1 \
	alphaTincreaseFactor 3 \
	nAlphaAdjustMax      3 \
	wolfeEnergy          0.0001 \
	wolfeGradient        0.9 \
	fdTest               no
kpoint   0.000000000000   0.000000000000   0.000000000000  1.00000000000000
kpoint-folding 12 12 1 
latt-move-scale 1 1 1
latt-scale 1 1 1 
lattice Hexagonal 5.23966 36
lattice-minimize  \
	dirUpdateScheme      L-BFGS \
	linminMethod         DirUpdateRecommended \
	nIterations          0 \
	history              15 \
	knormThreshold       0 \
	energyDiffThreshold  1e-06 \
	nEnergyDiff          2 \
	alphaTstart          1 \
	alphaTmin            1e-10 \
	updateTestStepSize   yes \
	alphaTreduceFactor   0.1 \
	alphaTincreaseFactor 3 \
	nAlphaAdjustMax      3 \
	wolfeEnergy          0.0001 \
	wolfeGradient        0.9 \
	fdTest               no
lcao-params -1 1e-06 0.01
pcm-variant CANDLE
spintype no-spin
subspace-rotation-factor 1 yes
symmetries automatic
symmetry-threshold 0.0001
target-mu -0.1648 no




---------- Setting up symmetries ----------

Found 24 point-group symmetries of the bravais lattice
Found 12 space-group symmetries with basis
Applied RMS atom displacement 2.70575e-06 bohrs to make symmetries exact.

---------- Initializing the Grid ----------
R = 
[    5.23966   -2.61983          0  ]
[          0    4.53768          0  ]
[          0          0         36  ]
unit cell volume = 855.932
G =
[    1.19916   0.692335         -0  ]
[          0    1.38467          0  ]
[          0         -0   0.174533  ]
Minimum fftbox size, Smin = [  24  24  164  ]
Chosen fftbox size, S = [  24  24  168  ]

---------- Initializing tighter grid for wavefunction operations ----------
R = 
[    5.23966   -2.61983          0  ]
[          0    4.53768          0  ]
[          0          0         36  ]
unit cell volume = 855.932
G =
[    1.19916   0.692335         -0  ]
[          0    1.38467          0  ]
[          0         -0   0.174533  ]
Minimum fftbox size, Smin = [  24  24  148  ]
Chosen fftbox size, S = [  24  24  150  ]

---------- Exchange Correlation functional ----------
Initalized PBEsol GGA exchange.
Initalized PBEsol GGA correlation.

---------- Setting up pseudopotentials ----------
Width of ionic core gaussian charges (only for fluid interactions / plotting) set to 0.397384

Reading pseudopotential file '/Users/juanmendezvalderrama/Documents/JDFTX/build/pseudopotentials/GBRV/pt_pbesol.uspp':
  Title: Pt.  Created by USPP 7.3.6 on 22-9-15
  Reference state energy: -104.899005.  16 valence electrons in orbitals:
    |510>  occupation: 6  eigenvalue: -2.158847
    |520>  occupation: 9.5  eigenvalue: -0.336311
    |600>  occupation: 0  eigenvalue: -0.320324
    |610>  occupation: 0  eigenvalue: -0.119800
  lMax: 2  lLocal: 3  QijEcut: 5.5
  6 projectors sampled on a log grid with 745 points:
    l: 0  eig: -0.320324  rCut: 2.45
    l: 0  eig: 1.500000  rCut: 2.45
    l: 1  eig: -2.158847  rCut: 1.6
    l: 1  eig: -0.119800  rCut: 1.6
    l: 2  eig: -0.500000  rCut: 1.6
    l: 2  eig: -0.336311  rCut: 1.6
  Partial core density with radius 1.1
  Transforming core density to a uniform radial grid of dG=0.02 with 1620 points.
  Transforming local potential to a uniform radial grid of dG=0.02 with 1620 points.
  Transforming nonlocal projectors to a uniform radial grid of dG=0.02 with 432 points.
  Transforming density augmentations to a uniform radial grid of dG=0.02 with 1620 points.
  Transforming atomic orbitals to a uniform radial grid of dG=0.02 with 432 points.
  Core radius for overlap checks: 2.45 bohrs.

Initialized 1 species with 5 total atoms.

Folded 1 k-points by 12x12x1 to 144 k-points.

---------- Setting up k-points, bands, fillings ----------
Reduced to 19 k-points under symmetry. 
Computing the number of bands and number of electrons
Reading initial fillings from file common.fillings.
nElectrons:  80.212701   nBands: 60   nStates: 19

----- Setting up reduced wavefunction bases (one per k-point) -----
average nbasis = 3657.132 , ideal nbasis = 3656.607

---------- Setting up coulomb interaction ----------
Fluid mode embedding: using embedded box, but periodic Coulomb kernel.
(Fluid response is responsible for (approximate) separation between periodic images.)
Setting up double-sized grid for truncated Coulomb potentials:
R = 
[    5.23966   -2.61983          0  ]
[          0    4.53768          0  ]
[          0          0         72  ]
unit cell volume = 1711.86
G =
[    1.19916   0.692335         -0  ]
[          0    1.38467          0  ]
[          0         -0  0.0872665  ]
Chosen fftbox size, S = [  24  24  336  ]
Integer grid location selected as the embedding center:
   Grid: [  0  0  0  ]
   Lattice: [  0  0  0  ]
   Cartesian: [  0  0  0  ]
Constructing Wigner-Seitz cell: 8 faces (6 quadrilaterals, 2 hexagons)
Range-separation parameter for embedded mesh potentials due to point charges: 0.589462 bohrs.

Initializing van der Waals corrections
	NOTE: vdW corrections apply only for interactions with fluid.
	Pt:  C6:  815.23 Eh-a0^6  R0: 3.326 a0 (WARNING: beyond Grimme's data set)

---------- Setting up ewald sum ----------
Optimum gaussian width for ewald sums = 3.649540 bohr.
Real space sum over 1805 unit cells with max indices [  9  9  2  ]
Reciprocal space sum over 5103 terms with max indices [  4  4  31  ]

---------- Allocating electronic variables ----------
Initializing wave functions:  reading from 'common.wfns'
----- createFluidSolver() ----- (Fluid-side solver setup)
   Initializing fluid molecule 'H2O'
     Initializing site 'O'
       Electron density: proportional to exp(-r/0.36935)*erfc((r-0.51523)/0.36823) with norm 6.826
       Charge density: gaussian nuclear width 0.478731 with net site charge 0.826
       Polarizability: cuspless exponential with width 0.32 and norm 3.73
       Hard sphere radius: 2.57003 bohrs
       Positions in reference frame:
         [ +0.000000 +0.000000 +0.000000 ]
     Initializing site 'H'
       Electron density: proportional to exp(-r/0.34641)*erfc((r-0)/0.390882) with norm 0.587
       Charge density: gaussian nuclear width 0.377945 with net site charge -0.413
       Polarizability: cuspless exponential with width 0.39 and norm 3.3
       Positions in reference frame:
         [ +0.000000 -1.441945 +1.122523 ]
         [ +0.000000 +1.441945 +1.122523 ]
     Net charge: 0   dipole magnitude: 0.927204
     Initializing spherical shell mfKernel with radius 2.61727 Bohr
     deltaS corrections:
       site 'O': -7.54299
       site 'H': -6.83917
   Initializing fluid molecule 'K+'
     Initializing site 'K'
       Electron density: proportional to exp(-r/0.35529)*erfc((r-0.82179)/0.45583) with norm 8.323
       Charge density: gaussian nuclear width 0.475581 with net site charge -1
       Hard sphere radius: 2.70798 bohrs
       Positions in reference frame:
         [ +0.000000 +0.000000 +0.000000 ]
     Net charge: -1   dipole magnitude: 0
     Initializing gaussian mfKernel with width: 2.01772 Bohr
     deltaS corrections:
       site 'K': -51.3309
   Initializing fluid molecule 'ClO4-'
     Initializing site 'Cl'
       Electron density: proportional to exp(-r/0.48793)*erfc((r-0.93371)/0.45657) with norm 6.2308
       Charge density: gaussian nuclear width 0.55117 with net site charge -0.7692
       Hard sphere radius: 4.42196 bohrs
       Positions in reference frame:
         [ +0.000000 +0.000000 +0.000000 ]
     Initializing site 'O'
       Electron density: proportional to exp(-r/0.36013)*erfc((r-0.51636)/0.37371) with norm 6.4423
       Charge density: gaussian nuclear width 0.478731 with net site charge 0.4423
       Positions in reference frame:
         [ +1.705286 +1.705286 +1.705286 ]
         [ +1.705286 -1.705286 -1.705286 ]
         [ -1.705286 +1.705286 -1.705286 ]
         [ -1.705286 -1.705286 +1.705286 ]
     Net charge: 1   dipole magnitude: 0
     Initializing gaussian mfKernel with width: 3.22033 Bohr
     deltaS corrections:
       site 'Cl': -87.0374
       site 'O': 12.0842

Correction to mu due to finite nuclear width = -0.0463682
   Cavity determined by nc: 0.00142 and sigma: 0.707107
   Nonlocal vdW cavity from gaussian model electron density with norm = 8 and sigma = 0.993594 bohr
   Charge asymmetry in cavity with sensitivity pCavity = 36.5 e-bohr/Eh
   Electrostatic cavity expanded by eta = 1.46 bohrs
   Weighted density cavitation model constrained by Nbulk: 0.0049383 bohr^-3, Pvap: 3.14029 kPa, Rvdw: 2.61727 bohr and sigmaBulk: 4.62e-05 Eh/bohr^2 at T: 298 K.
   Weighted density dispersion model using vdW pair potentials with single solvent site with sqrtC6eff: 0.77 SI.
Reading fluid state from 'common.fluidState'


---- Citations for features of the code used in this run ----

   Software package:
      R. Sundararaman, K. Letchworth-Weaver, K.A. Schwarz, D. Gunceler, Y. Ozhabes and T.A. Arias, 'JDFTx: software for joint density-functional theory', SoftwareX 6, 278 (2017)

   gga-PBEsol exchange-correlation functional:
      J.P. Perdew et al., Phys. Rev. Lett. 100, 136406 (2008)

   Pseudopotentials:
      KF Garrity, JW Bennett, KM Rabe and D Vanderbilt, Comput. Mater. Sci. 81, 446 (2014)

   Truncated Coulomb potentials:
      R. Sundararaman and T.A. Arias, Phys. Rev. B 87, 165122 (2013)

   Van der Waals correction pair-potentials:
      S. Grimme, J. Comput. Chem. 27, 1787 (2006)

   Charge-asymmetric nonlocally-determined local-electric (CANDLE) solvation model:
      R. Sundararaman and W.A. Goddard III, J. Chem. Phys. 142, 064107 (2015)

   Total energy minimization with Auxiliary Hamiltonian:
      C. Freysoldt, S. Boeck, and J. Neugebauer, Phys. Rev. B 79, 241103(R) (2009)

   Grand-canonical (fixed-potential) DFT:
      R. Sundararaman, W. A. Goddard III and T. A. Arias, J. Chem. Phys. 146, 114104 (2017)

This list may not be complete. Please suggest additional citations or
report any other bugs at https://github.com/shankar1729/jdftx/issues

Initialization completed successfully at t[s]:      2.99

Shifting auxilliary hamiltonian by 0.003622 to set nElectrons=80.212701
	Linear fluid (dielectric constant: 78.4, screening length: 5.74355 Bohr) occupying 0.623394 of unit cell:	Completed after 13 iterations at t[s]:      4.92

-------- Electronic minimization -----------
	Linear fluid (dielectric constant: 78.4, screening length: 5.74355 Bohr) occupying 0.623394 of unit cell:	Completed after 0 iterations at t[s]:      5.74
	FillingsUpdate:  mu: -0.164800000  nElectrons: 80.212701
ElecMinimize: Iter:   0  G: -431.971268635141143  |grad|_K:  1.530e-05  alpha:  1.000e+00
	Linear fluid (dielectric constant: 78.4, screening length: 5.74355 Bohr) occupying 0.643811 of unit cell:	Completed after 27 iterations at t[s]:      9.33
	Linear fluid (dielectric constant: 78.4, screening length: 5.74355 Bohr) occupying 0.623953 of unit cell:	Completed after 32 iterations at t[s]:     11.34
	FillingsUpdate:  mu: -0.164800000  nElectrons: 80.216065
	SubspaceRotationAdjust: set factor to 0.514
ElecMinimize: Iter:   1  G: -431.971273692332943  |grad|_K:  7.717e-06  alpha:  5.757e-03  linmin:  3.740e-02  t[s]:     12.67
	Linear fluid (dielectric constant: 78.4, screening length: 5.74355 Bohr) occupying 0.623997 of unit cell:	Completed after 14 iterations at t[s]:     14.19
ElecMinimize: 	Predicted alpha/alphaT>3.000000, increasing alphaT to 1.727109e-02.
	Linear fluid (dielectric constant: 78.4, screening length: 5.74355 Bohr) occupying 0.624084 of unit cell:	Completed after 15 iterations at t[s]:     15.70
	Linear fluid (dielectric constant: 78.4, screening length: 5.74355 Bohr) occupying 0.624215 of unit cell:	Completed after 15 iterations at t[s]:     17.23
	FillingsUpdate:  mu: -0.164800000  nElectrons: 80.217798
	SubspaceRotationAdjust: set factor to 0.25
ElecMinimize: Iter:   2  G: -431.971281434071443  |grad|_K:  4.636e-06  alpha:  3.464e-02  linmin:  2.792e-04  t[s]:     18.58
	Linear fluid (dielectric constant: 78.4, screening length: 5.74355 Bohr) occupying 0.624953 of unit cell:	Completed after 17 iterations at t[s]:     20.18
	Linear fluid (dielectric constant: 78.4, screening length: 5.74355 Bohr) occupying 0.624490 of unit cell:	Completed after 16 iterations at t[s]:     21.74
	FillingsUpdate:  mu: -0.164800000  nElectrons: 80.219533
	SubspaceRotationAdjust: set factor to 0.141
ElecMinimize: Iter:   3  G: -431.971282596987407  |grad|_K:  1.892e-06  alpha:  1.279e-02  linmin: -7.055e-04  t[s]:     23.08
	Linear fluid (dielectric constant: 78.4, screening length: 5.74355 Bohr) occupying 0.624504 of unit cell:	Completed after 5 iterations at t[s]:     24.28
ElecMinimize: 	Predicted alpha/alphaT>3.000000, increasing alphaT to 3.836623e-02.
	Linear fluid (dielectric constant: 78.4, screening length: 5.74355 Bohr) occupying 0.624531 of unit cell:	Completed after 8 iterations at t[s]:     25.56
ElecMinimize: 	Predicted alpha/alphaT>3.000000, increasing alphaT to 1.150987e-01.
	Linear fluid (dielectric constant: 78.4, screening length: 5.74355 Bohr) occupying 0.624613 of unit cell:	Completed after 14 iterations at t[s]:     27.01
ElecMinimize: 	Predicted alpha/alphaT>3.000000, increasing alphaT to 3.452961e-01.
	Linear fluid (dielectric constant: 78.4, screening length: 5.74355 Bohr) occupying 0.625035 of unit cell:	Completed after 17 iterations at t[s]:     28.60
	FillingsUpdate:  mu: -0.164800000  nElectrons: 80.223605
	SubspaceRotationAdjust: set factor to 0.088
	SubspaceRotationAdjust: resetting CG because factor has changed by 0.0880384
	Linear fluid (dielectric constant: 78.4, screening length: 5.74355 Bohr) occupying 0.625035 of unit cell:	Completed after 0 iterations at t[s]:     30.58
ElecMinimize: 	State modified externally: resetting search direction.
ElecMinimize: Iter:   4  G: -431.971290372223507  |grad|_K:  2.164e-06  alpha:  5.180e-01
	Linear fluid (dielectric constant: 78.4, screening length: 5.74355 Bohr) occupying 0.626381 of unit cell:	Completed after 21 iterations at t[s]:     33.61
	Linear fluid (dielectric constant: 78.4, screening length: 5.74355 Bohr) occupying 0.625194 of unit cell:	Completed after 18 iterations at t[s]:     35.25
	FillingsUpdate:  mu: -0.164800000  nElectrons: 80.224633
	SubspaceRotationAdjust: set factor to 0.0716
ElecMinimize: Iter:   5  G: -431.971291557529071  |grad|_K:  1.166e-06  alpha:  5.955e-02  linmin: -3.235e-03  t[s]:     36.58
	Linear fluid (dielectric constant: 78.4, screening length: 5.74355 Bohr) occupying 0.625163 of unit cell:	Completed after 11 iterations at t[s]:     37.96
ElecMinimize: 	Predicted alpha/alphaT>3.000000, increasing alphaT to 1.786404e-01.
	Linear fluid (dielectric constant: 78.4, screening length: 5.74355 Bohr) occupying 0.625100 of unit cell:	Completed after 11 iterations at t[s]:     39.37
	Linear fluid (dielectric constant: 78.4, screening length: 5.74355 Bohr) occupying 0.625013 of unit cell:	Completed after 14 iterations at t[s]:     40.90
	FillingsUpdate:  mu: -0.164800000  nElectrons: 80.223568
	SubspaceRotationAdjust: set factor to 0.0936
ElecMinimize: Iter:   6  G: -431.971293536706810  |grad|_K:  6.324e-07  alpha:  3.419e-01  linmin: -4.200e-04  t[s]:     42.20
	Linear fluid (dielectric constant: 78.4, screening length: 5.74355 Bohr) occupying 0.624956 of unit cell:	Completed after 11 iterations at t[s]:     43.62
	Linear fluid (dielectric constant: 78.4, screening length: 5.74355 Bohr) occupying 0.624923 of unit cell:	Completed after 11 iterations at t[s]:     45.00
	FillingsUpdate:  mu: -0.164800000  nElectrons: 80.223130
	SubspaceRotationAdjust: set factor to 0.0532
ElecMinimize: Iter:   7  G: -431.971294442532383  |grad|_K:  1.063e-06  alpha:  5.372e-01  linmin: -4.079e-05  t[s]:     46.30
	Linear fluid (dielectric constant: 78.4, screening length: 5.74355 Bohr) occupying 0.625587 of unit cell:	Completed after 17 iterations at t[s]:     47.87
	Linear fluid (dielectric constant: 78.4, screening length: 5.74355 Bohr) occupying 0.625028 of unit cell:	Completed after 17 iterations at t[s]:     49.41
	FillingsUpdate:  mu: -0.164800000  nElectrons: 80.223876
	SubspaceRotationAdjust: set factor to 0.0406
ElecMinimize: Iter:   8  G: -431.971294841772533  |grad|_K:  7.400e-07  alpha:  8.356e-02  linmin: -1.874e-04  t[s]:     50.74
	Linear fluid (dielectric constant: 78.4, screening length: 5.74355 Bohr) occupying 0.625054 of unit cell:	Completed after 8 iterations at t[s]:     52.04
ElecMinimize: 	Predicted alpha/alphaT>3.000000, increasing alphaT to 2.506800e-01.
	Linear fluid (dielectric constant: 78.4, screening length: 5.74355 Bohr) occupying 0.625105 of unit cell:	Completed after 11 iterations at t[s]:     53.42
	Linear fluid (dielectric constant: 78.4, screening length: 5.74355 Bohr) occupying 0.625231 of unit cell:	Completed after 14 iterations at t[s]:     54.88
	FillingsUpdate:  mu: -0.164800000  nElectrons: 80.225560
	SubspaceRotationAdjust: set factor to 0.0278
ElecMinimize: Iter:   9  G: -431.971296357438405  |grad|_K:  1.112e-06  alpha:  6.567e-01  linmin:  9.963e-05  t[s]:     56.22
	Linear fluid (dielectric constant: 78.4, screening length: 5.74355 Bohr) occupying 0.625042 of unit cell:	Completed after 15 iterations at t[s]:     57.76
	Linear fluid (dielectric constant: 78.4, screening length: 5.74355 Bohr) occupying 0.625183 of unit cell:	Completed after 15 iterations at t[s]:     59.25
	FillingsUpdate:  mu: -0.164800000  nElectrons: 80.225482
	SubspaceRotationAdjust: set factor to 0.0216
ElecMinimize: Iter:  10  G: -431.971297211785838  |grad|_K:  8.798e-07  alpha:  1.657e-01  linmin:  9.652e-06  t[s]:     60.60
	Linear fluid (dielectric constant: 78.4, screening length: 5.74355 Bohr) occupying 0.625195 of unit cell:	Completed after 12 iterations at t[s]:     62.07
	Linear fluid (dielectric constant: 78.4, screening length: 5.74355 Bohr) occupying 0.625214 of unit cell:	Completed after 13 iterations at t[s]:     63.55
	FillingsUpdate:  mu: -0.164800000  nElectrons: 80.226081
	SubspaceRotationAdjust: set factor to 0.0219
ElecMinimize: Iter:  11  G: -431.971298625449890  |grad|_K:  9.881e-07  alpha:  4.352e-01  linmin:  2.009e-05  t[s]:     64.92
	Linear fluid (dielectric constant: 78.4, screening length: 5.74355 Bohr) occupying 0.625510 of unit cell:	Completed after 15 iterations at t[s]:     66.41
	Linear fluid (dielectric constant: 78.4, screening length: 5.74355 Bohr) occupying 0.625377 of unit cell:	Completed after 14 iterations at t[s]:     67.93
	FillingsUpdate:  mu: -0.164800000  nElectrons: 80.227417
	SubspaceRotationAdjust: set factor to 0.0198
ElecMinimize: Iter:  12  G: -431.971299603574209  |grad|_K:  7.463e-07  alpha:  2.384e-01  linmin: -1.638e-05  t[s]:     69.26
	Linear fluid (dielectric constant: 78.4, screening length: 5.74355 Bohr) occupying 0.625455 of unit cell:	Completed after 14 iterations at t[s]:     70.73
	Linear fluid (dielectric constant: 78.4, screening length: 5.74355 Bohr) occupying 0.625489 of unit cell:	Completed after 11 iterations at t[s]:     72.11
	FillingsUpdate:  mu: -0.164800000  nElectrons: 80.228378
	SubspaceRotationAdjust: set factor to 0.0182
ElecMinimize: Iter:  13  G: -431.971300399690335  |grad|_K:  7.062e-07  alpha:  3.399e-01  linmin:  1.984e-05  t[s]:     73.46
	Linear fluid (dielectric constant: 78.4, screening length: 5.74355 Bohr) occupying 0.625460 of unit cell:	Completed after 14 iterations at t[s]:     74.96
	Linear fluid (dielectric constant: 78.4, screening length: 5.74355 Bohr) occupying 0.625469 of unit cell:	Completed after 12 iterations at t[s]:     76.40
	FillingsUpdate:  mu: -0.164800000  nElectrons: 80.228391
	SubspaceRotationAdjust: set factor to 0.0206
ElecMinimize: Iter:  14  G: -431.971300903109011  |grad|_K:  4.774e-07  alpha:  2.407e-01  linmin: -1.594e-05  t[s]:     77.65
	Linear fluid (dielectric constant: 78.4, screening length: 5.74355 Bohr) occupying 0.625455 of unit cell:	Completed after 13 iterations at t[s]:     79.12
	Linear fluid (dielectric constant: 78.4, screening length: 5.74355 Bohr) occupying 0.625453 of unit cell:	Completed after 2 iterations at t[s]:     80.21
	FillingsUpdate:  mu: -0.164800000  nElectrons: 80.228370
	SubspaceRotationAdjust: set factor to 0.0202
ElecMinimize: Iter:  15  G: -431.971301167233605  |grad|_K:  3.709e-07  alpha:  2.752e-01  linmin: -3.988e-04  t[s]:     81.53
	Linear fluid (dielectric constant: 78.4, screening length: 5.74355 Bohr) occupying 0.625494 of unit cell:	Completed after 12 iterations at t[s]:     82.96
	Linear fluid (dielectric constant: 78.4, screening length: 5.74355 Bohr) occupying 0.625490 of unit cell:	Completed after 2 iterations at t[s]:     84.04
	FillingsUpdate:  mu: -0.164800000  nElectrons: 80.228653
	SubspaceRotationAdjust: set factor to 0.0209
ElecMinimize: Iter:  16  G: -431.971301311551656  |grad|_K:  2.478e-07  alpha:  2.462e-01  linmin:  9.973e-04  t[s]:     85.36
	Linear fluid (dielectric constant: 78.4, screening length: 5.74355 Bohr) occupying 0.625506 of unit cell:	Completed after 11 iterations at t[s]:     86.79
	Linear fluid (dielectric constant: 78.4, screening length: 5.74355 Bohr) occupying 0.625511 of unit cell:	Completed after 3 iterations at t[s]:     87.94
	FillingsUpdate:  mu: -0.164800000  nElectrons: 80.228816
	SubspaceRotationAdjust: set factor to 0.0225
ElecMinimize: Iter:  17  G: -431.971301388731774  |grad|_K:  1.911e-07  alpha:  3.075e-01  linmin:  2.966e-04  t[s]:     89.31
	Linear fluid (dielectric constant: 78.4, screening length: 5.74355 Bohr) occupying 0.625497 of unit cell:	Completed after 11 iterations at t[s]:     90.77
	Linear fluid (dielectric constant: 78.4, screening length: 5.74355 Bohr) occupying 0.625498 of unit cell:	Completed after 2 iterations at t[s]:     91.85
	FillingsUpdate:  mu: -0.164800000  nElectrons: 80.228752
	SubspaceRotationAdjust: set factor to 0.0224
ElecMinimize: Iter:  18  G: -431.971301431443862  |grad|_K:  1.438e-07  alpha:  2.783e-01  linmin:  1.264e-03  t[s]:     93.16
	Linear fluid (dielectric constant: 78.4, screening length: 5.74355 Bohr) occupying 0.625500 of unit cell:	Completed after 6 iterations at t[s]:     94.44
	Linear fluid (dielectric constant: 78.4, screening length: 5.74355 Bohr) occupying 0.625501 of unit cell:	Completed after 4 iterations at t[s]:     95.61
	FillingsUpdate:  mu: -0.164800000  nElectrons: 80.228790
	SubspaceRotationAdjust: set factor to 0.0228
ElecMinimize: Iter:  19  G: -431.971301468975412  |grad|_K:  1.381e-07  alpha:  4.562e-01  linmin:  4.276e-04  t[s]:     96.96
	Linear fluid (dielectric constant: 78.4, screening length: 5.74355 Bohr) occupying 0.625537 of unit cell:	Completed after 12 iterations at t[s]:     98.47
	Linear fluid (dielectric constant: 78.4, screening length: 5.74355 Bohr) occupying 0.625530 of unit cell:	Completed after 5 iterations at t[s]:     99.63
	FillingsUpdate:  mu: -0.164800000  nElectrons: 80.228997
	SubspaceRotationAdjust: set factor to 0.0199
ElecMinimize: Iter:  20  G: -431.971301498310936  |grad|_K:  1.320e-07  alpha:  3.668e-01  linmin:  5.891e-04  t[s]:    100.96
	Linear fluid (dielectric constant: 78.4, screening length: 5.74355 Bohr) occupying 0.625538 of unit cell:	Completed after 2 iterations at t[s]:    102.08
	Linear fluid (dielectric constant: 78.4, screening length: 5.74355 Bohr) occupying 0.625543 of unit cell:	Completed after 3 iterations at t[s]:    103.23
	FillingsUpdate:  mu: -0.164800000  nElectrons: 80.229113
	SubspaceRotationAdjust: set factor to 0.0263
ElecMinimize: Iter:  21  G: -431.971301537495549  |grad|_K:  1.295e-07  alpha:  5.630e-01  linmin:  5.768e-05  t[s]:    104.53
	Linear fluid (dielectric constant: 78.4, screening length: 5.74355 Bohr) occupying 0.625533 of unit cell:	Completed after 11 iterations at t[s]:    105.91
	Linear fluid (dielectric constant: 78.4, screening length: 5.74355 Bohr) occupying 0.625536 of unit cell:	Completed after 6 iterations at t[s]:    107.10
	FillingsUpdate:  mu: -0.164800000  nElectrons: 80.229096
	SubspaceRotationAdjust: set factor to 0.021
ElecMinimize: Iter:  22  G: -431.971301564276189  |grad|_K:  1.543e-07  alpha:  3.910e-01  linmin: -2.356e-05  t[s]:    108.41
	Linear fluid (dielectric constant: 78.4, screening length: 5.74355 Bohr) occupying 0.625564 of unit cell:	Completed after 11 iterations at t[s]:    109.83
	Linear fluid (dielectric constant: 78.4, screening length: 5.74355 Bohr) occupying 0.625561 of unit cell:	Completed after 1 iterations at t[s]:    110.89
	FillingsUpdate:  mu: -0.164800000  nElectrons: 80.229295
	SubspaceRotationAdjust: set factor to 0.0211
ElecMinimize: Iter:  23  G: -431.971301598942716  |grad|_K:  1.201e-07  alpha:  3.472e-01  linmin: -4.560e-06  t[s]:    112.23
	Linear fluid (dielectric constant: 78.4, screening length: 5.74355 Bohr) occupying 0.625568 of unit cell:	Completed after 2 iterations at t[s]:    113.34
	Linear fluid (dielectric constant: 78.4, screening length: 5.74355 Bohr) occupying 0.625576 of unit cell:	Completed after 7 iterations at t[s]:    114.60
	FillingsUpdate:  mu: -0.164800000  nElectrons: 80.229448
	SubspaceRotationAdjust: set factor to 0.0253
ElecMinimize: Iter:  24  G: -431.971301643828440  |grad|_K:  1.404e-07  alpha:  7.540e-01  linmin:  1.831e-04  t[s]:    115.86
	Linear fluid (dielectric constant: 78.4, screening length: 5.74355 Bohr) occupying 0.625546 of unit cell:	Completed after 11 iterations at t[s]:    117.27
	Linear fluid (dielectric constant: 78.4, screening length: 5.74355 Bohr) occupying 0.625555 of unit cell:	Completed after 11 iterations at t[s]:    118.67
	FillingsUpdate:  mu: -0.164800000  nElectrons: 80.229366
	SubspaceRotationAdjust: set factor to 0.022
ElecMinimize: Iter:  25  G: -431.971301685042704  |grad|_K:  1.632e-07  alpha:  5.080e-01  linmin:  3.896e-05  t[s]:    120.02
	Linear fluid (dielectric constant: 78.4, screening length: 5.74355 Bohr) occupying 0.625566 of unit cell:	Completed after 12 iterations at t[s]:    121.51
	Linear fluid (dielectric constant: 78.4, screening length: 5.74355 Bohr) occupying 0.625566 of unit cell:	Completed after 0 iterations at t[s]:    122.54
	FillingsUpdate:  mu: -0.164800000  nElectrons: 80.229507
	SubspaceRotationAdjust: set factor to 0.0209
ElecMinimize: Iter:  26  G: -431.971301741651303  |grad|_K:  1.469e-07  alpha:  5.090e-01  linmin:  3.440e-06  t[s]:    123.89
	Linear fluid (dielectric constant: 78.4, screening length: 5.74355 Bohr) occupying 0.625554 of unit cell:	Completed after 4 iterations at t[s]:    125.05
	Linear fluid (dielectric constant: 78.4, screening length: 5.74355 Bohr) occupying 0.625550 of unit cell:	Completed after 5 iterations at t[s]:    126.26
	FillingsUpdate:  mu: -0.164800000  nElectrons: 80.229486
	SubspaceRotationAdjust: set factor to 0.023
ElecMinimize: Iter:  27  G: -431.971301803160657  |grad|_K:  1.347e-07  alpha:  6.811e-01  linmin:  3.861e-05  t[s]:    127.59
	Linear fluid (dielectric constant: 78.4, screening length: 5.74355 Bohr) occupying 0.625529 of unit cell:	Completed after 10 iterations at t[s]:    128.95
	Linear fluid (dielectric constant: 78.4, screening length: 5.74355 Bohr) occupying 0.625533 of unit cell:	Completed after 2 iterations at t[s]:    130.02
	FillingsUpdate:  mu: -0.164800000  nElectrons: 80.229428
	SubspaceRotationAdjust: set factor to 0.0235
ElecMinimize: Iter:  28  G: -431.971301844223262  |grad|_K:  1.234e-07  alpha:  5.425e-01  linmin:  5.408e-05  t[s]:    131.34
	Linear fluid (dielectric constant: 78.4, screening length: 5.74355 Bohr) occupying 0.625552 of unit cell:	Completed after 12 iterations at t[s]:    132.78
	Linear fluid (dielectric constant: 78.4, screening length: 5.74355 Bohr) occupying 0.625544 of unit cell:	Completed after 10 iterations at t[s]:    134.12
	FillingsUpdate:  mu: -0.164800000  nElectrons: 80.229522
	SubspaceRotationAdjust: set factor to 0.0171
ElecMinimize: Iter:  29  G: -431.971301862328687  |grad|_K:  9.691e-08  alpha:  2.990e-01  linmin: -2.267e-05  t[s]:    135.38
	Linear fluid (dielectric constant: 78.4, screening length: 5.74355 Bohr) occupying 0.625536 of unit cell:	Completed after 7 iterations at t[s]:    136.65
	Linear fluid (dielectric constant: 78.4, screening length: 5.74355 Bohr) occupying 0.625534 of unit cell:	Completed after 1 iterations at t[s]:    137.71
	FillingsUpdate:  mu: -0.164800000  nElectrons: 80.229480
	SubspaceRotationAdjust: set factor to 0.0226
ElecMinimize: Iter:  30  G: -431.971301877645089  |grad|_K:  6.472e-08  alpha:  3.885e-01  linmin: -2.181e-04  t[s]:    139.03
	Linear fluid (dielectric constant: 78.4, screening length: 5.74355 Bohr) occupying 0.625527 of unit cell:	Completed after 8 iterations at t[s]:    140.35
	Linear fluid (dielectric constant: 78.4, screening length: 5.74355 Bohr) occupying 0.625527 of unit cell:	Completed after 0 iterations at t[s]:    141.35
	FillingsUpdate:  mu: -0.164800000  nElectrons: 80.229442
	SubspaceRotationAdjust: set factor to 0.0185
ElecMinimize: Iter:  31  G: -431.971301884549348  |grad|_K:  6.218e-08  alpha:  3.832e-01  linmin: -5.260e-04  t[s]:    142.67
	Linear fluid (dielectric constant: 78.4, screening length: 5.74355 Bohr) occupying 0.625534 of unit cell:	Completed after 8 iterations at t[s]:    143.98
	Linear fluid (dielectric constant: 78.4, screening length: 5.74355 Bohr) occupying 0.625532 of unit cell:	Completed after 2 iterations at t[s]:    145.08
	FillingsUpdate:  mu: -0.164800000  nElectrons: 80.229483
	SubspaceRotationAdjust: set factor to 0.0173
ElecMinimize: Iter:  32  G: -431.971301889439076  |grad|_K:  5.010e-08  alpha:  2.861e-01  linmin:  2.481e-04  t[s]:    146.41
ElecMinimize: Converged (|Delta G|<1.000000e-08 for 2 iters).
Setting wave functions to eigenvectors of Hamiltonian

# Ionic positions in lattice coordinates:
ion Pt   0.333333333333333  -0.333333333333333  -0.237676000000000 1
ion Pt  -0.333333333333333   0.333333333333333  -0.118838000000000 1
ion Pt   0.000000000000000   0.000000000000000   0.000000000000000 1
ion Pt   0.333333333333333  -0.333333333333333   0.118838000000000 1
ion Pt  -0.333333333333333   0.333333333333333   0.237676000000000 1


# Forces in Lattice coordinates:
force Pt  -0.000000000000000   0.000000000000000  -0.065808485385472 1
force Pt   0.000000000000000   0.000000000000000   0.102602248031445 1
force Pt   0.000000000000000  -0.000000000000000   0.000000000000000 1
force Pt   0.000000000000000   0.000000000000000  -0.102602248031900 1
force Pt   0.000000000000000   0.000000000000000   0.065808485386382 1

# Energy components:
   A_diel =       -0.0831398247835389
   Eewald =     4702.9680318706023172
       EH =     5117.1010763954882350
     Eloc =   -10341.9145729047704663
      Enl =       -5.2748782083367196
      Exc =     -141.6207846420130068
 Exc_core =       81.2082896017070937
       KE =      142.4892925093824374
  MuShift =       -0.0106407141434355
-------------------------------------
     Etot =     -445.1373259168682353
       TS =        0.0557947723298919
-------------------------------------
        F =     -445.1931206891981105
      muN =      -13.2218187997590526
-------------------------------------
        G =     -431.9713018894390757

IonicMinimize: Iter:   0  G: -431.971301889439076  |grad|_K:  1.236e-03  t[s]:    146.92
IonicMinimize: None of the convergence criteria satisfied after 0 iterations.

#--- Lowdin population analysis ---
# oxidation-state Pt -0.105 +0.008 +0.015 +0.008 -0.105


Dumping 'common.fillings' ... done
Dumping 'common.wfns' ... done
Dumping 'common.fluidState' ... done
Dumping 'common.eigenvals' ... done
Dumping 'common.nbound' ... done
End date and time: Tue Mar 26 00:49:47 2019  (Duration: 0-0:02:27.15)
Done!
