--------------------------------------------------------------------------
Initialization of PSM library failed.

  Error: PSM is in the finalized state
--------------------------------------------------------------------------
[node2002][[2560,1],0][btl_openib.c:880:mca_btl_openib_add_procs] could not prepare openib device for use
--------------------------------------------------------------------------
The OpenFabrics (openib) BTL failed to initialize while trying to
allocate some locked memory.  This typically can indicate that the
memlock limits are set too low.  For most HPC installations, the
memlock limits should be set to "unlimited".  The failure occured
here:

  Local host:    node2002
  OMPI source:   btl_openib.c:753
  Function:      ompi_free_list_init_ex_new()
  Device:        qib0
  Memlock limit: 65536

You may need to consult with your system administrator to get this
problem fixed.  This FAQ entry on the Open MPI web site may also be
helpful:

    http://www.open-mpi.org/faq/?category=openfabrics#ib-locked-pages
--------------------------------------------------------------------------

*************** JDFTx 1.4.2 (git hash 74b6e54) ***************

Start date and time: Sun Apr 28 14:23:34 2019
Executable /home/jfm343/JDFTXDIR/build/jdftx with command-line: -i Vacuum.in
Running on hosts (process indices):  node2002.physics.cornell.edu (0)
Divided in process groups (process indices):  0 (0)
Resource initialization completed at t[s]:      0.00
Run totals: 1 processes, 12 threads, 0 GPUs


Input parsed successfully to the following command list (including defaults):

basis kpoint-dependent
coords-type Lattice
core-overlap-check vector
coulomb-interaction Slab 001
coulomb-truncation-embed 0 0 0
davidson-band-ratio 1.1
dump End State IonicPositions ElecDensity EigStats Ecomponents
dump-name 110_5-Vacuum.$VAR
elec-cutoff 20 100
elec-eigen-algo Davidson
elec-ex-corr gga-PBEsol
elec-smearing Fermi 0.01
electronic-minimize  \
	dirUpdateScheme      FletcherReeves \
	linminMethod         DirUpdateRecommended \
	nIterations          200 \
	history              15 \
	knormThreshold       0 \
	energyDiffThreshold  1e-08 \
	nEnergyDiff          2 \
	alphaTstart          1 \
	alphaTmin            1e-10 \
	updateTestStepSize   yes \
	alphaTreduceFactor   0.1 \
	alphaTincreaseFactor 3 \
	nAlphaAdjustMax      3 \
	wolfeEnergy          0.0001 \
	wolfeGradient        0.9 \
	fdTest               no
exchange-regularization WignerSeitzTruncated
fluid None
fluid-ex-corr lda-TF lda-PZ
fluid-gummel-loop 10 1.000000e-05
fluid-minimize  \
	dirUpdateScheme      PolakRibiere \
	linminMethod         DirUpdateRecommended \
	nIterations          100 \
	history              15 \
	knormThreshold       0 \
	energyDiffThreshold  0 \
	nEnergyDiff          2 \
	alphaTstart          1 \
	alphaTmin            1e-10 \
	updateTestStepSize   yes \
	alphaTreduceFactor   0.1 \
	alphaTincreaseFactor 3 \
	nAlphaAdjustMax      3 \
	wolfeEnergy          0.0001 \
	wolfeGradient        0.9 \
	fdTest               no
fluid-solvent H2O 55.338 ScalarEOS \
	epsBulk 78.4 \
	pMol 0.92466 \
	epsInf 1.77 \
	Pvap 1.06736e-10 \
	sigmaBulk 4.62e-05 \
	Rvdw 2.61727 \
	Res 1.42 \
	tauNuc 343133 \
	omegaEl 0.55124 \
	gammaEl 0.257245
forces-output-coords Positions
ion C   0.500000000000000   0.500000000000000   0.315000000000000 1
ion O   0.709000000000000   0.500000000000000   0.315000000000000 1
ion O   0.291000000000000   0.500000000000000   0.315000000000000 1
ion Pt   0.000000000000000   0.000000000000000  -0.155941670000000 0
ion Pt   0.500000000000000   0.500000000000000  -0.155941670000000 0
ion Pt   0.000000000000000   0.500000000000000  -0.155941670000000 0
ion Pt   0.500000000000000   0.000000000000000  -0.155941670000000 0
ion Pt   0.750000000000000   0.250000000000000  -0.077970830000000 0
ion Pt   0.250000000000000   0.750000000000000  -0.077970830000000 0
ion Pt   0.250000000000000   0.250000000000000  -0.077970830000000 0
ion Pt   0.750000000000000   0.750000000000000  -0.077970830000000 0
ion Pt   0.500000000000000   0.000000000000000   0.000000000000000 1
ion Pt   0.000000000000000   0.000000000000000   0.000000000000000 1
ion Pt   0.000000000000000   0.500000000000000   0.000000000000000 1
ion Pt   0.500000000000000   0.500000000000000   0.000000000000000 1
ion Pt   0.750000000000000   0.250000000000000   0.077970830000000 1
ion Pt   0.250000000000000   0.750000000000000   0.077970830000000 1
ion Pt   0.250000000000000   0.250000000000000   0.077970830000000 1
ion Pt   0.750000000000000   0.750000000000000   0.077970830000000 1
ion Pt   0.000000000000000   0.000000000000000   0.155941670000000 1
ion Pt   0.000000000000000   0.500000000000000   0.155941670000000 1
ion Pt   0.500000000000000   0.000000000000000   0.155941670000000 1
ion Pt   0.500000000000000   0.500000000000000   0.155941670000000 1
ion-species GBRV/$ID_pbesol.uspp
ion-width 0
ionic-minimize  \
	dirUpdateScheme      L-BFGS \
	linminMethod         DirUpdateRecommended \
	nIterations          5 \
	history              15 \
	knormThreshold       0.0001 \
	energyDiffThreshold  1e-06 \
	nEnergyDiff          2 \
	alphaTstart          1 \
	alphaTmin            1e-10 \
	updateTestStepSize   yes \
	alphaTreduceFactor   0.1 \
	alphaTincreaseFactor 3 \
	nAlphaAdjustMax      3 \
	wolfeEnergy          0.0001 \
	wolfeGradient        0.9 \
	fdTest               no
kpoint   0.000000000000   0.000000000000   0.000000000000  1.00000000000000
kpoint-folding 4 4 1 
latt-move-scale 1 1 1
latt-scale 1 1 1 
lattice Orthorhombic 10.4761 14.8155 31.4284
lattice-minimize  \
	dirUpdateScheme      L-BFGS \
	linminMethod         DirUpdateRecommended \
	nIterations          0 \
	history              15 \
	knormThreshold       0 \
	energyDiffThreshold  1e-06 \
	nEnergyDiff          2 \
	alphaTstart          1 \
	alphaTmin            1e-10 \
	updateTestStepSize   yes \
	alphaTreduceFactor   0.1 \
	alphaTincreaseFactor 3 \
	nAlphaAdjustMax      3 \
	wolfeEnergy          0.0001 \
	wolfeGradient        0.9 \
	fdTest               no
lcao-params -1 1e-06 0.01
pcm-variant GLSSA13
spintype no-spin
subspace-rotation-factor 1 yes
symmetries automatic
symmetry-threshold 0.0001



---------- Setting up symmetries ----------

Found 8 point-group symmetries of the bravais lattice
Found 4 space-group symmetries with basis
Applied RMS atom displacement 0 bohrs to make symmetries exact.

---------- Initializing the Grid ----------
R = 
[    10.4761          0          0  ]
[          0    14.8155          0  ]
[          0          0    31.4284  ]
unit cell volume = 4877.97
G =
[   0.599762          0          0  ]
[          0   0.424096          0  ]
[          0          0   0.199921  ]
Minimum fftbox size, Smin = [  48  68  144  ]
Chosen fftbox size, S = [  48  70  144  ]

---------- Initializing tighter grid for wavefunction operations ----------
R = 
[    10.4761          0          0  ]
[          0    14.8155          0  ]
[          0          0    31.4284  ]
unit cell volume = 4877.97
G =
[   0.599762          0          0  ]
[          0   0.424096          0  ]
[          0          0   0.199921  ]
Minimum fftbox size, Smin = [  44  60  128  ]
Chosen fftbox size, S = [  48  60  128  ]

---------- Exchange Correlation functional ----------
Initalized PBEsol GGA exchange.
Initalized PBEsol GGA correlation.

---------- Setting up pseudopotentials ----------
Width of ionic core gaussian charges (only for fluid interactions / plotting) set to 0

Reading pseudopotential file '/home/jfm343/JDFTXDIR/build/pseudopotentials/GBRV/c_pbesol.uspp':
  Title: C.  Created by USPP 7.3.6 on 3-2-2014
  Reference state energy: -5.383511.  4 valence electrons in orbitals:
    |200>  occupation: 2  eigenvalue: -0.501126
    |210>  occupation: 2  eigenvalue: -0.192448
  lMax: 1  lLocal: 2  QijEcut: 5
  4 projectors sampled on a log grid with 503 points:
    l: 0  eig: -0.501126  rCut: 1.3
    l: 0  eig: 0.000000  rCut: 1.3
    l: 1  eig: -0.192448  rCut: 1.3
    l: 1  eig: 0.000000  rCut: 1.3
  Partial core density with radius 1.1
  Transforming core density to a uniform radial grid of dG=0.02 with 1265 points.
  Transforming local potential to a uniform radial grid of dG=0.02 with 1265 points.
  Transforming nonlocal projectors to a uniform radial grid of dG=0.02 with 432 points.
  Transforming density augmentations to a uniform radial grid of dG=0.02 with 1265 points.
  Transforming atomic orbitals to a uniform radial grid of dG=0.02 with 432 points.
  Core radius for overlap checks: 1.30 bohrs.

Reading pseudopotential file '/home/jfm343/JDFTXDIR/build/pseudopotentials/GBRV/o_pbesol.uspp':
  Title: O.  Created by USPP 7.3.6 on 3-2-2014
  Reference state energy: -15.849885.  6 valence electrons in orbitals:
    |200>  occupation: 2  eigenvalue: -0.873214
    |210>  occupation: 4  eigenvalue: -0.330058
  lMax: 2  lLocal: 2  QijEcut: 6
  5 projectors sampled on a log grid with 511 points:
    l: 0  eig: -0.873214  rCut: 1.25
    l: 0  eig: 0.000000  rCut: 1.25
    l: 1  eig: -0.330058  rCut: 1.25
    l: 1  eig: 0.000000  rCut: 1.25
    l: 2  eig: 1.000000  rCut: 1.25
  Partial core density with radius 0.7
  Transforming core density to a uniform radial grid of dG=0.02 with 1265 points.
  Transforming local potential to a uniform radial grid of dG=0.02 with 1265 points.
  Transforming nonlocal projectors to a uniform radial grid of dG=0.02 with 432 points.
  Transforming density augmentations to a uniform radial grid of dG=0.02 with 1265 points.
  Transforming atomic orbitals to a uniform radial grid of dG=0.02 with 432 points.
  Core radius for overlap checks: 1.25 bohrs.

Reading pseudopotential file '/home/jfm343/JDFTXDIR/build/pseudopotentials/GBRV/pt_pbesol.uspp':
  Title: Pt.  Created by USPP 7.3.6 on 22-9-15
  Reference state energy: -104.899005.  16 valence electrons in orbitals:
    |510>  occupation: 6  eigenvalue: -2.158847
    |520>  occupation: 9.5  eigenvalue: -0.336311
    |600>  occupation: 0  eigenvalue: -0.320324
    |610>  occupation: 0  eigenvalue: -0.119800
  lMax: 2  lLocal: 3  QijEcut: 5.5
  6 projectors sampled on a log grid with 745 points:
    l: 0  eig: -0.320324  rCut: 2.45
    l: 0  eig: 1.500000  rCut: 2.45
    l: 1  eig: -2.158847  rCut: 1.6
    l: 1  eig: -0.119800  rCut: 1.6
    l: 2  eig: -0.500000  rCut: 1.6
    l: 2  eig: -0.336311  rCut: 1.6
  Partial core density with radius 1.1
  Transforming core density to a uniform radial grid of dG=0.02 with 1265 points.
  Transforming local potential to a uniform radial grid of dG=0.02 with 1265 points.
  Transforming nonlocal projectors to a uniform radial grid of dG=0.02 with 432 points.
  Transforming density augmentations to a uniform radial grid of dG=0.02 with 1265 points.
  Transforming atomic orbitals to a uniform radial grid of dG=0.02 with 432 points.
  Core radius for overlap checks: 2.45 bohrs.

Initialized 3 species with 23 total atoms.

Folded 1 k-points by 4x4x1 to 16 k-points.

---------- Setting up k-points, bands, fillings ----------
Reduced to 9 k-points under symmetry. 
Computing the number of bands and number of electrons
Calculating initial fillings.
nElectrons: 336.000000   nBands: 252   nStates: 9

----- Setting up reduced wavefunction bases (one per k-point) -----
average nbasis = 20843.562 , ideal nbasis = 20839.040

---------- Setting up coulomb interaction ----------
Setting up double-sized grid for truncated Coulomb potentials:
R = 
[    10.4761          0          0  ]
[          0    14.8155          0  ]
[          0          0    62.8568  ]
unit cell volume = 9755.93
G =
[   0.599762          0          0  ]
[          0   0.424096          0  ]
[          0          0  0.0999604  ]
Chosen fftbox size, S = [  48  70  288  ]
Integer grid location selected as the embedding center:
   Grid: [  0  0  0  ]
   Lattice: [  0  0  0  ]
   Cartesian: [  0  0  0  ]
Constructing Wigner-Seitz cell: 6 faces (6 quadrilaterals, 0 hexagons)
Range-separation parameter for embedded mesh potentials due to point charges: 0.589372 bohrs.
Initialized slab truncation along lattice direction 001

---------- Setting up 2D ewald sum ----------
Optimum gaussian width for ewald sums = 7.432089 bohr.
Real space sums over 221 unit cells with max indices [  8  6  0  ]
Reciprocal space sums over 99 terms with max indices [  4  5  0  ]

---------- Allocating electronic variables ----------
Initializing wave functions:  linear combination of atomic orbitals
C pseudo-atom occupations:   s ( 2 )  p ( 2 )
O pseudo-atom occupations:   s ( 2 )  p ( 4 )
Pt pseudo-atom occupations:   s ( 0 )  p ( 6 0 )  d ( 10 )
	FillingsUpdate:  mu: -2.410359117  nElectrons: 336.000000
LCAOMinimize: Iter:   0  F: -1797.4029080643451834  |grad|_K:  3.538e-02  alpha:  1.000e+00
LCAOMinimize: 	Step increased F by 4.195162e+02, reducing alpha to 2.407394e-02.
	FillingsUpdate:  mu: -0.974603832  nElectrons: 336.000000
LCAOMinimize: Iter:   1  F: -1808.9340360479600349  |grad|_K:  3.477e-02  alpha:  2.407e-02  linmin:  1.078e-01  cgtest: -3.709e-01  t[s]:    406.03
	FillingsUpdate:  mu: -0.050262982  nElectrons: 336.000000
LCAOMinimize: Iter:   2  F: -1810.4421188801056815  |grad|_K:  4.134e-02  alpha:  1.557e-02  linmin: -1.797e-03  cgtest:  8.590e-01  t[s]:    497.78
	FillingsUpdate:  mu: -0.212867161  nElectrons: 336.000000
LCAOMinimize: Iter:   3  F: -1815.7797047084943642  |grad|_K:  6.106e-03  alpha:  1.007e-02  linmin:  2.486e-02  cgtest:  2.747e-01  t[s]:    595.51
LCAOMinimize: Encountered beta<0, resetting CG.
LCAOMinimize: 	Predicted alpha/alphaT>3.000000, increasing alphaT to 3.021916e-02.
	FillingsUpdate:  mu: -0.475506170  nElectrons: 336.000000
LCAOMinimize: Iter:   4  F: -1816.6477463265487131  |grad|_K:  3.285e-03  alpha:  8.110e-02  linmin: -1.778e-03  cgtest:  2.625e-02  t[s]:    714.44
	FillingsUpdate:  mu: -0.201161968  nElectrons: 336.000000
LCAOMinimize: Iter:   5  F: -1817.2166652835696823  |grad|_K:  3.294e-03  alpha:  1.664e-01  linmin: -4.109e-02  cgtest:  1.278e-01  t[s]:    812.74
	FillingsUpdate:  mu: -0.205477201  nElectrons: 336.000000
LCAOMinimize: Iter:   6  F: -1817.2872916265716867  |grad|_K:  2.121e-03  alpha:  2.326e-02  linmin:  4.638e-02  cgtest: -5.860e-01  t[s]:    907.57
	FillingsUpdate:  mu: -0.132210545  nElectrons: 336.000000
LCAOMinimize: Iter:   7  F: -1817.3286958743185551  |grad|_K:  3.389e-03  alpha:  4.909e-02  linmin: -1.304e-03  cgtest:  9.090e-01  t[s]:   1006.08
	FillingsUpdate:  mu: -0.157525128  nElectrons: 336.000000
LCAOMinimize: Iter:   8  F: -1817.3899320732293745  |grad|_K:  9.739e-04  alpha:  1.865e-02  linmin:  7.091e-03  cgtest: -3.210e-01  t[s]:   1102.85
LCAOMinimize: 	Predicted alpha/alphaT>3.000000, increasing alphaT to 5.595351e-02.
	FillingsUpdate:  mu: -0.196885366  nElectrons: 336.000000
LCAOMinimize: Iter:   9  F: -1817.4312202501646425  |grad|_K:  7.789e-04  alpha:  1.547e-01  linmin: -6.938e-04  cgtest:  1.359e-01  t[s]:   1224.75
	FillingsUpdate:  mu: -0.188664547  nElectrons: 336.000000
LCAOMinimize: Iter:  10  F: -1817.4403593668732810  |grad|_K:  1.033e-03  alpha:  5.059e-02  linmin: -2.417e-03  cgtest:  9.965e-03  t[s]:   1320.42
	FillingsUpdate:  mu: -0.191750563  nElectrons: 336.000000
LCAOMinimize: Iter:  11  F: -1817.4551315135158802  |grad|_K:  3.939e-04  alpha:  4.673e-02  linmin:  7.217e-03  cgtest: -2.414e-01  t[s]:   1415.90
	FillingsUpdate:  mu: -0.209725766  nElectrons: 336.000000
LCAOMinimize: Iter:  12  F: -1817.4597694177693938  |grad|_K:  1.691e-04  alpha:  1.104e-01  linmin:  7.413e-03  cgtest:  2.312e-01  t[s]:   1513.37
	FillingsUpdate:  mu: -0.215132084  nElectrons: 336.000000
LCAOMinimize: Iter:  13  F: -1817.4601787269250508  |grad|_K:  1.770e-04  alpha:  5.043e-02  linmin:  2.747e-04  cgtest:  1.082e-02  t[s]:   1608.18
	FillingsUpdate:  mu: -0.219010212  nElectrons: 336.000000
LCAOMinimize: Iter:  14  F: -1817.4604116959681051  |grad|_K:  7.371e-05  alpha:  2.584e-02  linmin:  6.625e-05  cgtest: -4.628e-03  t[s]:   1705.37
LCAOMinimize: 	Predicted alpha/alphaT>3.000000, increasing alphaT to 7.751875e-02.
	FillingsUpdate:  mu: -0.219545123  nElectrons: 336.000000
LCAOMinimize: Iter:  15  F: -1817.4607450380137834  |grad|_K:  5.257e-05  alpha:  2.133e-01  linmin:  6.380e-04  cgtest:  1.437e-02  t[s]:   1827.12
	FillingsUpdate:  mu: -0.219333840  nElectrons: 336.000000
LCAOMinimize: Iter:  16  F: -1817.4607815292492887  |grad|_K:  6.814e-05  alpha:  4.588e-02  linmin: -1.394e-04  cgtest:  3.945e-03  t[s]:   1922.57
	FillingsUpdate:  mu: -0.218986956  nElectrons: 336.000000
LCAOMinimize: Iter:  17  F: -1817.4608544119325870  |grad|_K:  3.003e-05  alpha:  5.445e-02  linmin:  2.509e-04  cgtest: -2.407e-02  t[s]:   2021.50
	FillingsUpdate:  mu: -0.219398119  nElectrons: 336.000000
LCAOMinimize: Iter:  18  F: -1817.4608786477683680  |grad|_K:  2.265e-05  alpha:  9.341e-02  linmin: -6.803e-05  cgtest:  1.949e-03  t[s]:   2120.04
	FillingsUpdate:  mu: -0.219368263  nElectrons: 336.000000
LCAOMinimize: Iter:  19  F: -1817.4608843428484306  |grad|_K:  2.679e-05  alpha:  3.854e-02  linmin:  1.603e-05  cgtest: -1.177e-03  t[s]:   2216.88
	FillingsUpdate:  mu: -0.218885404  nElectrons: 336.000000
LCAOMinimize: Iter:  20  F: -1817.4609023947934929  |grad|_K:  1.009e-05  alpha:  8.725e-02  linmin: -5.797e-04  cgtest:  1.241e-02  t[s]:   2316.25
	FillingsUpdate:  mu: -0.218580264  nElectrons: 336.000000
LCAOMinimize: Iter:  21  F: -1817.4609044797084607  |grad|_K:  7.753e-06  alpha:  7.103e-02  linmin:  1.171e-05  cgtest: -2.139e-03  t[s]:   2412.36
	FillingsUpdate:  mu: -0.218543813  nElectrons: 336.000000
LCAOMinimize: Iter:  22  F: -1817.4609048156985409  |grad|_K:  3.582e-06  alpha:  1.938e-02  linmin:  5.910e-06  cgtest:  7.644e-04  t[s]:   2509.41
LCAOMinimize: 	Predicted alpha/alphaT>3.000000, increasing alphaT to 5.814095e-02.
	FillingsUpdate:  mu: -0.218689540  nElectrons: 336.000000
LCAOMinimize: Iter:  23  F: -1817.4609054081686281  |grad|_K:  2.629e-06  alpha:  1.593e-01  linmin: -1.219e-03  cgtest:  7.690e-03  t[s]:   2632.67
LCAOMinimize: Converged (|Delta F|<1.000000e-06 for 2 iters).


---- Citations for features of the code used in this run ----

   Software package:
      R. Sundararaman, K. Letchworth-Weaver, K.A. Schwarz, D. Gunceler, Y. Ozhabes and T.A. Arias, 'JDFTx: software for joint density-functional theory', SoftwareX 6, 278 (2017)

   gga-PBEsol exchange-correlation functional:
      J.P. Perdew et al., Phys. Rev. Lett. 100, 136406 (2008)

   Pseudopotentials:
      KF Garrity, JW Bennett, KM Rabe and D Vanderbilt, Comput. Mater. Sci. 81, 446 (2014)

   Truncated Coulomb potentials:
      R. Sundararaman and T.A. Arias, Phys. Rev. B 87, 165122 (2013)

   Total energy minimization with Auxiliary Hamiltonian:
      C. Freysoldt, S. Boeck, and J. Neugebauer, Phys. Rev. B 79, 241103(R) (2009)

This list may not be complete. Please suggest additional citations or
report any other bugs at https://github.com/shankar1729/jdftx/issues

Initialization completed successfully at t[s]:   2716.33


-------- Electronic minimization -----------
	FillingsUpdate:  mu: -0.218689540  nElectrons: 336.000000
ElecMinimize: Iter:   0  F: -1817.460905408153621  |grad|_K:  1.589e-04  alpha:  1.000e+00
	FillingsUpdate:  mu: -0.169869017  nElectrons: 336.000000
	SubspaceRotationAdjust: set factor to 1
ElecMinimize: Iter:   1  F: -1817.966454031989088  |grad|_K:  7.935e-05  alpha:  4.339e-01  linmin:  1.682e-04  t[s]:   3286.35
	FillingsUpdate:  mu: -0.229928854  nElectrons: 336.000000
	SubspaceRotationAdjust: set factor to 0.624
ElecMinimize: Iter:   2  F: -1818.050770450810205  |grad|_K:  8.748e-05  alpha:  2.876e-01  linmin: -5.544e-06  t[s]:   3686.75
	FillingsUpdate:  mu: -0.190951329  nElectrons: 336.000000
	SubspaceRotationAdjust: set factor to 0.461
ElecMinimize: Iter:   3  F: -1818.085896268911256  |grad|_K:  5.403e-05  alpha:  9.406e-02  linmin: -6.136e-05  t[s]:   4090.44
	FillingsUpdate:  mu: -0.187908732  nElectrons: 336.000000
	SubspaceRotationAdjust: set factor to 0.269
ElecMinimize: Iter:   4  F: -1818.090895486866430  |grad|_K:  3.567e-05  alpha:  3.483e-02  linmin: -2.870e-05  t[s]:   4490.38
ElecMinimize: 	Predicted alpha/alphaT>3.000000, increasing alphaT to 1.044768e-01.
	FillingsUpdate:  mu: -0.174001494  nElectrons: 336.000000
	SubspaceRotationAdjust: set factor to 0.177
ElecMinimize: Iter:   5  F: -1818.107262258886294  |grad|_K:  3.120e-05  alpha:  2.680e-01  linmin:  9.594e-06  t[s]:   4985.10
	FillingsUpdate:  mu: -0.178404570  nElectrons: 336.000000
	SubspaceRotationAdjust: set factor to 0.13
	SubspaceRotationAdjust: resetting CG because factor has changed by 0.130421
ElecMinimize: 	State modified externally: resetting search direction.
ElecMinimize: Iter:   6  F: -1818.110316562099797  |grad|_K:  1.712e-05  alpha:  6.672e-02
ElecMinimize: 	Predicted alpha/alphaT>3.000000, increasing alphaT to 2.001691e-01.
	FillingsUpdate:  mu: -0.183505641  nElectrons: 336.000000
	SubspaceRotationAdjust: set factor to 0.0986
ElecMinimize: Iter:   7  F: -1818.113739329485043  |grad|_K:  1.270e-05  alpha:  2.454e-01  linmin: -6.219e-05  t[s]:   6029.66
	FillingsUpdate:  mu: -0.187287347  nElectrons: 336.000000
	SubspaceRotationAdjust: set factor to 0.0678
ElecMinimize: Iter:   8  F: -1818.115159041570223  |grad|_K:  8.058e-06  alpha:  1.851e-01  linmin: -6.552e-06  t[s]:   6430.53
	FillingsUpdate:  mu: -0.186472263  nElectrons: 336.000000
	SubspaceRotationAdjust: set factor to 0.0953
ElecMinimize: Iter:   9  F: -1818.116758514361209  |grad|_K:  5.865e-06  alpha:  5.196e-01  linmin:  5.519e-05  t[s]:   6831.43
	FillingsUpdate:  mu: -0.185295051  nElectrons: 336.000000
	SubspaceRotationAdjust: set factor to 0.0818
ElecMinimize: Iter:  10  F: -1818.117388892548206  |grad|_K:  5.104e-06  alpha:  3.872e-01  linmin:  2.831e-06  t[s]:   7231.92
	FillingsUpdate:  mu: -0.184813001  nElectrons: 336.000000
	SubspaceRotationAdjust: set factor to 0.0762
ElecMinimize: Iter:  11  F: -1818.117736045199308  |grad|_K:  3.891e-06  alpha:  2.801e-01  linmin: -2.641e-07  t[s]:   7639.43
	FillingsUpdate:  mu: -0.184168533  nElectrons: 336.000000
	SubspaceRotationAdjust: set factor to 0.0984
ElecMinimize: Iter:  12  F: -1818.118279106914088  |grad|_K:  3.883e-06  alpha:  7.546e-01  linmin:  1.405e-06  t[s]:   8041.31
	FillingsUpdate:  mu: -0.183936786  nElectrons: 336.000000
	SubspaceRotationAdjust: set factor to 0.0923
ElecMinimize: Iter:  13  F: -1818.118737249958940  |grad|_K:  5.561e-06  alpha:  6.396e-01  linmin: -1.525e-06  t[s]:   8442.17
	FillingsUpdate:  mu: -0.184377250  nElectrons: 336.000000
	SubspaceRotationAdjust: set factor to 0.0717
ElecMinimize: Iter:  14  F: -1818.119201814560256  |grad|_K:  4.645e-06  alpha:  3.171e-01  linmin:  1.663e-06  t[s]:   8842.39
	FillingsUpdate:  mu: -0.184581056  nElectrons: 336.000000
	SubspaceRotationAdjust: set factor to 0.0816
ElecMinimize: Iter:  15  F: -1818.119745101692615  |grad|_K:  3.310e-06  alpha:  5.304e-01  linmin:  1.630e-06  t[s]:   9244.99
	FillingsUpdate:  mu: -0.184117048  nElectrons: 336.000000
	SubspaceRotationAdjust: set factor to 0.0754
ElecMinimize: Iter:  16  F: -1818.119948614193163  |grad|_K:  2.525e-06  alpha:  3.909e-01  linmin: -2.251e-06  t[s]:   9643.08
	FillingsUpdate:  mu: -0.183530141  nElectrons: 336.000000
	SubspaceRotationAdjust: set factor to 0.0576
ElecMinimize: Iter:  17  F: -1818.120041565089878  |grad|_K:  1.846e-06  alpha:  3.064e-01  linmin: -1.997e-06  t[s]:  10045.95
	FillingsUpdate:  mu: -0.182963050  nElectrons: 336.000000
	SubspaceRotationAdjust: set factor to 0.0624
ElecMinimize: Iter:  18  F: -1818.120103150976092  |grad|_K:  1.154e-06  alpha:  3.797e-01  linmin: -3.153e-06  t[s]:  10446.80
	FillingsUpdate:  mu: -0.182949216  nElectrons: 336.000000
	SubspaceRotationAdjust: set factor to 0.0719
ElecMinimize: Iter:  19  F: -1818.120128803980606  |grad|_K:  8.507e-07  alpha:  4.047e-01  linmin: -3.631e-07  t[s]:  10847.32
	FillingsUpdate:  mu: -0.183052621  nElectrons: 336.000000
	SubspaceRotationAdjust: set factor to 0.0764
ElecMinimize: Iter:  20  F: -1818.120141784795806  |grad|_K:  6.518e-07  alpha:  3.771e-01  linmin:  4.755e-07  t[s]:  11251.72
	FillingsUpdate:  mu: -0.183052943  nElectrons: 336.000000
	SubspaceRotationAdjust: set factor to 0.0941
ElecMinimize: Iter:  21  F: -1818.120150333873880  |grad|_K:  5.970e-07  alpha:  4.233e-01  linmin:  9.493e-07  t[s]:  11653.01
	FillingsUpdate:  mu: -0.182977091  nElectrons: 336.000000
	SubspaceRotationAdjust: set factor to 0.122
ElecMinimize: Iter:  22  F: -1818.120160002627927  |grad|_K:  6.187e-07  alpha:  5.713e-01  linmin:  1.536e-06  t[s]:  12050.56
	FillingsUpdate:  mu: -0.183003925  nElectrons: 336.000000
	SubspaceRotationAdjust: set factor to 0.132
ElecMinimize: Iter:  23  F: -1818.120171685872037  |grad|_K:  8.283e-07  alpha:  6.436e-01  linmin:  2.009e-06  t[s]:  12454.83
	FillingsUpdate:  mu: -0.183068123  nElectrons: 336.000000
	SubspaceRotationAdjust: set factor to 0.11
ElecMinimize: Iter:  24  F: -1818.120179933667032  |grad|_K:  7.901e-07  alpha:  2.529e-01  linmin: -1.094e-07  t[s]:  12857.49
	FillingsUpdate:  mu: -0.183207514  nElectrons: 336.000000
	SubspaceRotationAdjust: set factor to 0.11
ElecMinimize: Iter:  25  F: -1818.120191815500675  |grad|_K:  6.483e-07  alpha:  4.028e-01  linmin:  4.541e-06  t[s]:  13258.40
	FillingsUpdate:  mu: -0.183270135  nElectrons: 336.000000
	SubspaceRotationAdjust: set factor to 0.121
ElecMinimize: Iter:  26  F: -1818.120200648154196  |grad|_K:  5.275e-07  alpha:  4.502e-01  linmin:  3.519e-06  t[s]:  13656.72
	FillingsUpdate:  mu: -0.183291150  nElectrons: 336.000000
	SubspaceRotationAdjust: set factor to 0.132
ElecMinimize: Iter:  27  F: -1818.120205605001729  |grad|_K:  4.291e-07  alpha:  3.782e-01  linmin:  5.258e-07  t[s]:  14058.90
	FillingsUpdate:  mu: -0.183295725  nElectrons: 336.000000
	SubspaceRotationAdjust: set factor to 0.126
ElecMinimize: Iter:  28  F: -1818.120208045605523  |grad|_K:  4.062e-07  alpha:  2.790e-01  linmin: -1.132e-08  t[s]:  14459.41
	FillingsUpdate:  mu: -0.183292381  nElectrons: 336.000000
	SubspaceRotationAdjust: set factor to 0.141
ElecMinimize: Iter:  29  F: -1818.120210083928669  |grad|_K:  2.955e-07  alpha:  2.597e-01  linmin: -7.401e-08  t[s]:  14861.62
	FillingsUpdate:  mu: -0.183299631  nElectrons: 336.000000
	SubspaceRotationAdjust: set factor to 0.172
ElecMinimize: Iter:  30  F: -1818.120211838514933  |grad|_K:  2.703e-07  alpha:  4.224e-01  linmin:  2.472e-07  t[s]:  15263.45
	FillingsUpdate:  mu: -0.183321174  nElectrons: 336.000000
	SubspaceRotationAdjust: set factor to 0.22
ElecMinimize: Iter:  31  F: -1818.120213392215646  |grad|_K:  2.590e-07  alpha:  4.478e-01  linmin:  6.206e-07  t[s]:  15659.81
	FillingsUpdate:  mu: -0.183330085  nElectrons: 336.000000
	SubspaceRotationAdjust: set factor to 0.221
ElecMinimize: Iter:  32  F: -1818.120214732594604  |grad|_K:  3.016e-07  alpha:  4.208e-01  linmin:  6.540e-07  t[s]:  16060.10
	FillingsUpdate:  mu: -0.183324232  nElectrons: 336.000000
	SubspaceRotationAdjust: set factor to 0.189
ElecMinimize: Iter:  33  F: -1818.120215405225736  |grad|_K:  2.952e-07  alpha:  1.554e-01  linmin: -1.697e-07  t[s]:  16459.89
	FillingsUpdate:  mu: -0.183313799  nElectrons: 336.000000
	SubspaceRotationAdjust: set factor to 0.197
ElecMinimize: Iter:  34  F: -1818.120216294224292  |grad|_K:  2.143e-07  alpha:  2.144e-01  linmin:  1.918e-07  t[s]:  16861.03
	FillingsUpdate:  mu: -0.183311429  nElectrons: 336.000000
	SubspaceRotationAdjust: set factor to 0.238
ElecMinimize: Iter:  35  F: -1818.120217125680256  |grad|_K:  1.837e-07  alpha:  3.818e-01  linmin:  6.449e-07  t[s]:  17266.17
	FillingsUpdate:  mu: -0.183315916  nElectrons: 336.000000
	SubspaceRotationAdjust: set factor to 0.305
ElecMinimize: Iter:  36  F: -1818.120217744497040  |grad|_K:  1.709e-07  alpha:  3.870e-01  linmin: -9.100e-08  t[s]:  17667.15
	FillingsUpdate:  mu: -0.183309400  nElectrons: 336.000000
	SubspaceRotationAdjust: set factor to 0.284
ElecMinimize: Iter:  37  F: -1818.120218261062064  |grad|_K:  1.751e-07  alpha:  3.721e-01  linmin: -5.196e-08  t[s]:  18068.83
	FillingsUpdate:  mu: -0.183305316  nElectrons: 336.000000
	SubspaceRotationAdjust: set factor to 0.193
ElecMinimize: Iter:  38  F: -1818.120218507447589  |grad|_K:  2.215e-07  alpha:  1.693e-01  linmin:  1.243e-07  t[s]:  18469.85
	FillingsUpdate:  mu: -0.183298959  nElectrons: 336.000000
	SubspaceRotationAdjust: set factor to 0.231
ElecMinimize: Iter:  39  F: -1818.120218813487782  |grad|_K:  1.343e-07  alpha:  1.312e-01  linmin: -2.126e-09  t[s]:  18871.63
	FillingsUpdate:  mu: -0.183297021  nElectrons: 336.000000
	SubspaceRotationAdjust: set factor to 0.292
ElecMinimize: Iter:  40  F: -1818.120219119596868  |grad|_K:  1.261e-07  alpha:  3.559e-01  linmin:  2.947e-07  t[s]:  19272.55
	FillingsUpdate:  mu: -0.183295169  nElectrons: 336.000000
	SubspaceRotationAdjust: set factor to 0.219
ElecMinimize: Iter:  41  F: -1818.120219257768213  |grad|_K:  1.639e-07  alpha:  1.835e-01  linmin: -1.237e-07  t[s]:  19670.80
	FillingsUpdate:  mu: -0.183289787  nElectrons: 336.000000
	SubspaceRotationAdjust: set factor to 0.211
ElecMinimize: Iter:  42  F: -1818.120219421214870  |grad|_K:  1.002e-07  alpha:  1.274e-01  linmin:  7.936e-08  t[s]:  20071.15
	FillingsUpdate:  mu: -0.183282565  nElectrons: 336.000000
	SubspaceRotationAdjust: set factor to 0.266
ElecMinimize: Iter:  43  F: -1818.120219583371636  |grad|_K:  8.524e-08  alpha:  3.370e-01  linmin: -1.022e-06  t[s]:  20472.72
	FillingsUpdate:  mu: -0.183282434  nElectrons: 336.000000
	SubspaceRotationAdjust: set factor to 0.218
ElecMinimize: Iter:  44  F: -1818.120219684461290  |grad|_K:  1.013e-07  alpha:  2.901e-01  linmin: -6.496e-07  t[s]:  20870.91
	FillingsUpdate:  mu: -0.183283281  nElectrons: 336.000000
	SubspaceRotationAdjust: set factor to 0.184
ElecMinimize: Iter:  45  F: -1818.120219733674730  |grad|_K:  7.604e-08  alpha:  1.033e-01  linmin: -2.786e-07  t[s]:  21272.39
ElecMinimize: 	Predicted alpha/alphaT>3.000000, increasing alphaT to 3.099990e-01.
	FillingsUpdate:  mu: -0.183287282  nElectrons: 336.000000
	SubspaceRotationAdjust: set factor to 0.271
ElecMinimize: Iter:  46  F: -1818.120219817461930  |grad|_K:  6.149e-08  alpha:  3.048e-01  linmin:  1.369e-06  t[s]:  21767.12
	FillingsUpdate:  mu: -0.183287287  nElectrons: 336.000000
	SubspaceRotationAdjust: set factor to 0.188
ElecMinimize: Iter:  47  F: -1818.120219866677189  |grad|_K:  8.277e-08  alpha:  2.764e-01  linmin:  3.158e-07  t[s]:  22165.39
	FillingsUpdate:  mu: -0.183285717  nElectrons: 336.000000
	SubspaceRotationAdjust: set factor to 0.193
ElecMinimize: Iter:  48  F: -1818.120219901185237  |grad|_K:  5.735e-08  alpha:  1.061e-01  linmin: -1.051e-07  t[s]:  22566.14
ElecMinimize: 	Predicted alpha/alphaT>3.000000, increasing alphaT to 3.184031e-01.
	FillingsUpdate:  mu: -0.183283629  nElectrons: 336.000000
	SubspaceRotationAdjust: set factor to 0.233
ElecMinimize: Iter:  49  F: -1818.120219957602103  |grad|_K:  5.534e-08  alpha:  3.616e-01  linmin:  9.809e-08  t[s]:  23057.72
	FillingsUpdate:  mu: -0.183284945  nElectrons: 336.000000
	SubspaceRotationAdjust: set factor to 0.199
ElecMinimize: Iter:  50  F: -1818.120219983647075  |grad|_K:  6.508e-08  alpha:  1.764e-01  linmin: -9.972e-08  t[s]:  23459.63
	FillingsUpdate:  mu: -0.183287868  nElectrons: 336.000000
	SubspaceRotationAdjust: set factor to 0.227
ElecMinimize: Iter:  51  F: -1818.120220020644410  |grad|_K:  4.543e-08  alpha:  1.820e-01  linmin: -5.620e-07  t[s]:  23858.50
	FillingsUpdate:  mu: -0.183289364  nElectrons: 336.000000
	SubspaceRotationAdjust: set factor to 0.267
ElecMinimize: Iter:  52  F: -1818.120220054304809  |grad|_K:  4.466e-08  alpha:  3.229e-01  linmin: -3.982e-06  t[s]:  24260.87
	FillingsUpdate:  mu: -0.183289451  nElectrons: 336.000000
	SubspaceRotationAdjust: set factor to 0.219
ElecMinimize: Iter:  53  F: -1818.120220069088191  |grad|_K:  4.895e-08  alpha:  1.486e-01  linmin: -4.914e-07  t[s]:  24664.25
	FillingsUpdate:  mu: -0.183288765  nElectrons: 336.000000
	SubspaceRotationAdjust: set factor to 0.217
ElecMinimize: Iter:  54  F: -1818.120220088665747  |grad|_K:  3.247e-08  alpha:  1.705e-01  linmin:  7.823e-08  t[s]:  25062.06
	FillingsUpdate:  mu: -0.183290211  nElectrons: 336.000000
	SubspaceRotationAdjust: set factor to 0.275
ElecMinimize: Iter:  55  F: -1818.120220104928421  |grad|_K:  2.694e-08  alpha:  3.357e-01  linmin:  2.859e-06  t[s]:  25460.94
	FillingsUpdate:  mu: -0.183291273  nElectrons: 336.000000
	SubspaceRotationAdjust: set factor to 0.244
ElecMinimize: Iter:  56  F: -1818.120220115418761  |grad|_K:  2.943e-08  alpha:  3.248e-01  linmin: -3.263e-07  t[s]:  25866.25
	FillingsUpdate:  mu: -0.183290793  nElectrons: 336.000000
	SubspaceRotationAdjust: set factor to 0.197
ElecMinimize: Iter:  57  F: -1818.120220120498288  |grad|_K:  2.883e-08  alpha:  1.249e-01  linmin: -1.190e-07  t[s]:  26266.97
	FillingsUpdate:  mu: -0.183288889  nElectrons: 336.000000
	SubspaceRotationAdjust: set factor to 0.2
ElecMinimize: Iter:  58  F: -1818.120220127852690  |grad|_K:  2.517e-08  alpha:  2.926e-01  linmin:  1.490e-05  t[s]:  26666.65
ElecMinimize: Converged (|Delta F|<1.000000e-08 for 2 iters).
Setting wave functions to eigenvectors of Hamiltonian

# Ionic positions in lattice coordinates:
ion C   0.500000000000000   0.500000000000000   0.315000000000000 1
ion O   0.709000000000000   0.500000000000000   0.315000000000000 1
ion O   0.291000000000000   0.500000000000000   0.315000000000000 1
ion Pt   0.000000000000000   0.000000000000000  -0.155941670000000 0
ion Pt   0.500000000000000   0.500000000000000  -0.155941670000000 0
ion Pt   0.000000000000000   0.500000000000000  -0.155941670000000 0
ion Pt   0.500000000000000   0.000000000000000  -0.155941670000000 0
ion Pt   0.750000000000000   0.250000000000000  -0.077970830000000 0
ion Pt   0.250000000000000   0.750000000000000  -0.077970830000000 0
ion Pt   0.250000000000000   0.250000000000000  -0.077970830000000 0
ion Pt   0.750000000000000   0.750000000000000  -0.077970830000000 0
ion Pt   0.500000000000000   0.000000000000000   0.000000000000000 1
ion Pt   0.000000000000000   0.000000000000000   0.000000000000000 1
ion Pt   0.000000000000000   0.500000000000000   0.000000000000000 1
ion Pt   0.500000000000000   0.500000000000000   0.000000000000000 1
ion Pt   0.750000000000000   0.250000000000000   0.077970830000000 1
ion Pt   0.250000000000000   0.750000000000000   0.077970830000000 1
ion Pt   0.250000000000000   0.250000000000000   0.077970830000000 1
ion Pt   0.750000000000000   0.750000000000000   0.077970830000000 1
ion Pt   0.000000000000000   0.000000000000000   0.155941670000000 1
ion Pt   0.000000000000000   0.500000000000000   0.155941670000000 1
ion Pt   0.500000000000000   0.000000000000000   0.155941670000000 1
ion Pt   0.500000000000000   0.500000000000000   0.155941670000000 1


# Forces in Lattice coordinates:
force C   0.000000000000000   0.000000000000000  -0.270328066561713 1
force O   0.375934955185841   0.000000000000000   0.383365683936942 1
force O  -0.375934955185841   0.000000000000000   0.383365683936942 1
force Pt   0.000000000000000   0.000000000000000  -0.169990258809083 0
force Pt   0.000000000000000   0.000000000000000  -0.168770444496194 0
force Pt   0.000000000000000   0.000000000000000  -0.152079203561632 0
force Pt   0.000000000000000   0.000000000000000  -0.170413445053996 0
force Pt  -0.000097404663450  -0.000868042783008  -1.334733038430125 0
force Pt   0.000097404663450   0.000868042783008  -1.334733038430125 0
force Pt   0.000097404663450  -0.000868042783008  -1.334733038430125 0
force Pt  -0.000097404663450   0.000868042783008  -1.334733038430125 0
force Pt   0.000000000000000   0.000000000000000  -0.005465333614663 1
force Pt   0.000000000000000   0.000000000000000  -0.007111814635138 1
force Pt   0.000000000000000   0.000000000000000   0.044573059132555 1
force Pt   0.000000000000000   0.000000000000000  -0.010117696770791 1
force Pt   0.000538297985215  -0.011103089996120   1.322515599497760 1
force Pt  -0.000538297985215   0.011103089996120   1.322515599497760 1
force Pt  -0.000538297985215  -0.011103089996120   1.322515599498215 1
force Pt   0.000538297985215   0.011103089996118   1.322515599497760 1
force Pt   0.000000000000000   0.000000000000000   0.173757395534885 1
force Pt   0.000000000000000   0.000000000000000   0.060315140930034 1
force Pt   0.000000000000000   0.000000000000000   0.171991599021159 1
force Pt   0.000000000000000   0.000000000000000  -0.213320320072700 1

# Energy components:
   Eewald =   -11935.1388984546138090
       EH =   -10396.8956739019067754
     Eloc =    20191.3404759814948193
      Enl =      -15.4545933765573800
      Exc =     -575.3503924247401073
 Exc_core =      324.9917746013302917
       KE =      588.6277921264367023
-------------------------------------
     Etot =    -1817.8795154485546846
       TS =        0.2407046792979624
-------------------------------------
        F =    -1818.1202201278526900

IonicMinimize: Iter:   0  F: -1818.120220127852690  |grad|_K:  1.501e-02  t[s]:  26731.64

#--- Lowdin population analysis ---
# oxidation-state C +0.722
# oxidation-state O -0.193 -0.193
# oxidation-state Pt +0.068 +0.068 +0.068 +0.067 -0.045 -0.045 -0.045 -0.045 +0.016 +0.016 +0.018 +0.013 -0.044 -0.044 -0.044 -0.044 +0.058 +0.047 +0.048 -0.018


-------- Electronic minimization -----------
	FillingsUpdate:  mu: -0.111969513  nElectrons: 336.000000
ElecMinimize: Iter:   0  F: -1817.800105258551866  |grad|_K:  1.665e-04  alpha:  1.000e+00
	FillingsUpdate:  mu: -0.116232677  nElectrons: 336.000000
	SubspaceRotationAdjust: set factor to 0.13
ElecMinimize: Iter:   1  F: -1817.964796238503595  |grad|_K:  1.496e-04  alpha:  1.455e-01  linmin:  1.160e-02  t[s]:  27433.31
	FillingsUpdate:  mu: -0.204217902  nElectrons: 336.000000
	SubspaceRotationAdjust: set factor to 0.173
ElecMinimize: Iter:   2  F: -1818.090976442332021  |grad|_K:  3.822e-05  alpha:  1.366e-01  linmin: -5.657e-04  t[s]:  27834.29
	FillingsUpdate:  mu: -0.186899748  nElectrons: 336.000000
	SubspaceRotationAdjust: set factor to 0.118
ElecMinimize: Iter:   3  F: -1818.105636507156078  |grad|_K:  3.541e-05  alpha:  2.111e-01  linmin:  5.670e-04  t[s]:  28236.28
	FillingsUpdate:  mu: -0.181761921  nElectrons: 336.000000
	SubspaceRotationAdjust: set factor to 0.133
ElecMinimize: Iter:   4  F: -1818.113441179950996  |grad|_K:  1.181e-05  alpha:  1.318e-01  linmin: -1.677e-05  t[s]:  28639.27
ElecMinimize: 	Predicted alpha/alphaT>3.000000, increasing alphaT to 3.953188e-01.
	FillingsUpdate:  mu: -0.182422159  nElectrons: 336.000000
	SubspaceRotationAdjust: set factor to 0.0893
ElecMinimize: Iter:   5  F: -1818.116533059302128  |grad|_K:  1.310e-05  alpha:  4.662e-01  linmin: -3.378e-05  t[s]:  29135.98
	FillingsUpdate:  mu: -0.184175487  nElectrons: 336.000000
	SubspaceRotationAdjust: set factor to 0.0735
ElecMinimize: Iter:   6  F: -1818.118024129005562  |grad|_K:  1.025e-05  alpha:  1.803e-01  linmin: -1.011e-04  t[s]:  29539.27
ElecMinimize: 	Predicted alpha/alphaT>3.000000, increasing alphaT to 5.409588e-01.
	FillingsUpdate:  mu: -0.182307232  nElectrons: 336.000000
	SubspaceRotationAdjust: set factor to 0.0701
ElecMinimize: Iter:   7  F: -1818.120752475774225  |grad|_K:  1.106e-05  alpha:  5.418e-01  linmin:  2.231e-05  t[s]:  30038.60
	FillingsUpdate:  mu: -0.182041937  nElectrons: 336.000000
	SubspaceRotationAdjust: set factor to 0.0589
ElecMinimize: Iter:   8  F: -1818.122422264764282  |grad|_K:  9.707e-06  alpha:  2.910e-01  linmin:  3.603e-05  t[s]:  30436.55
	FillingsUpdate:  mu: -0.181320951  nElectrons: 336.000000
	SubspaceRotationAdjust: set factor to 0.069
ElecMinimize: Iter:   9  F: -1818.124330175799059  |grad|_K:  8.788e-06  alpha:  4.279e-01  linmin:  1.295e-05  t[s]:  30838.68
	FillingsUpdate:  mu: -0.180425989  nElectrons: 336.000000
	SubspaceRotationAdjust: set factor to 0.0632
ElecMinimize: Iter:  10  F: -1818.125821541085088  |grad|_K:  9.134e-06  alpha:  4.065e-01  linmin:  5.410e-05  t[s]:  31241.42
	FillingsUpdate:  mu: -0.182084066  nElectrons: 336.000000
	SubspaceRotationAdjust: set factor to 0.0773
ElecMinimize: Iter:  11  F: -1818.127074137212276  |grad|_K:  6.065e-06  alpha:  3.185e-01  linmin: -1.576e-05  t[s]:  31637.74
	FillingsUpdate:  mu: -0.183085694  nElectrons: 336.000000
	SubspaceRotationAdjust: set factor to 0.074
ElecMinimize: Iter:  12  F: -1818.127694377176340  |grad|_K:  5.048e-06  alpha:  3.538e-01  linmin: -3.106e-05  t[s]:  32041.89
	FillingsUpdate:  mu: -0.183835957  nElectrons: 336.000000
	SubspaceRotationAdjust: set factor to 0.0636
ElecMinimize: Iter:  13  F: -1818.127987335556554  |grad|_K:  3.202e-06  alpha:  2.409e-01  linmin:  7.711e-07  t[s]:  32444.44
	FillingsUpdate:  mu: -0.183732111  nElectrons: 336.000000
	SubspaceRotationAdjust: set factor to 0.0805
ElecMinimize: Iter:  14  F: -1818.128183697752092  |grad|_K:  2.374e-06  alpha:  4.029e-01  linmin:  6.004e-06  t[s]:  32846.96
	FillingsUpdate:  mu: -0.183856122  nElectrons: 336.000000
	SubspaceRotationAdjust: set factor to 0.0651
ElecMinimize: Iter:  15  F: -1818.128256104413367  |grad|_K:  1.707e-06  alpha:  2.703e-01  linmin: -2.137e-07  t[s]:  33246.62
	FillingsUpdate:  mu: -0.184204731  nElectrons: 336.000000
	SubspaceRotationAdjust: set factor to 0.0877
ElecMinimize: Iter:  16  F: -1818.128308638237286  |grad|_K:  1.157e-06  alpha:  3.790e-01  linmin:  2.223e-06  t[s]:  33648.21
	FillingsUpdate:  mu: -0.184324031  nElectrons: 336.000000
	SubspaceRotationAdjust: set factor to 0.0859
ElecMinimize: Iter:  17  F: -1818.128337534637467  |grad|_K:  1.156e-06  alpha:  4.540e-01  linmin:  1.610e-06  t[s]:  34045.39
	FillingsUpdate:  mu: -0.184362077  nElectrons: 336.000000
	SubspaceRotationAdjust: set factor to 0.0743
ElecMinimize: Iter:  18  F: -1818.128355681312769  |grad|_K:  8.917e-07  alpha:  2.858e-01  linmin:  5.233e-07  t[s]:  34448.41
	FillingsUpdate:  mu: -0.184373349  nElectrons: 336.000000
	SubspaceRotationAdjust: set factor to 0.0911
ElecMinimize: Iter:  19  F: -1818.128374165783953  |grad|_K:  7.979e-07  alpha:  4.889e-01  linmin:  7.269e-07  t[s]:  34849.26
	FillingsUpdate:  mu: -0.184458776  nElectrons: 336.000000
	SubspaceRotationAdjust: set factor to 0.0962
ElecMinimize: Iter:  20  F: -1818.128389003621805  |grad|_K:  8.201e-07  alpha:  4.901e-01  linmin:  1.016e-06  t[s]:  35250.12
	FillingsUpdate:  mu: -0.184466878  nElectrons: 336.000000
	SubspaceRotationAdjust: set factor to 0.0788
ElecMinimize: Iter:  21  F: -1818.128399737106974  |grad|_K:  7.669e-07  alpha:  3.358e-01  linmin: -1.106e-07  t[s]:  35648.23
	FillingsUpdate:  mu: -0.184344350  nElectrons: 336.000000
	SubspaceRotationAdjust: set factor to 0.08
ElecMinimize: Iter:  22  F: -1818.128409937133483  |grad|_K:  5.653e-07  alpha:  3.646e-01  linmin:  1.348e-06  t[s]:  36047.75
	FillingsUpdate:  mu: -0.184207050  nElectrons: 336.000000
	SubspaceRotationAdjust: set factor to 0.093
ElecMinimize: Iter:  23  F: -1818.128417556689101  |grad|_K:  4.337e-07  alpha:  5.017e-01  linmin:  3.689e-07  t[s]:  36444.16
	FillingsUpdate:  mu: -0.184194825  nElectrons: 336.000000
	SubspaceRotationAdjust: set factor to 0.0744
ElecMinimize: Iter:  24  F: -1818.128420712524758  |grad|_K:  3.834e-07  alpha:  3.529e-01  linmin: -2.638e-07  t[s]:  36843.54
	FillingsUpdate:  mu: -0.184205057  nElectrons: 336.000000
	SubspaceRotationAdjust: set factor to 0.0617
ElecMinimize: Iter:  25  F: -1818.128422691153446  |grad|_K:  2.309e-07  alpha:  2.829e-01  linmin:  2.418e-07  t[s]:  37244.04
	FillingsUpdate:  mu: -0.184207933  nElectrons: 336.000000
	SubspaceRotationAdjust: set factor to 0.0783
ElecMinimize: Iter:  26  F: -1818.128423839418019  |grad|_K:  1.640e-07  alpha:  4.527e-01  linmin:  1.634e-07  t[s]:  37643.09
	FillingsUpdate:  mu: -0.184194006  nElectrons: 336.000000
	SubspaceRotationAdjust: set factor to 0.0823
ElecMinimize: Iter:  27  F: -1818.128424424001878  |grad|_K:  1.385e-07  alpha:  4.568e-01  linmin: -2.239e-06  t[s]:  38033.49
	FillingsUpdate:  mu: -0.184194520  nElectrons: 336.000000
	SubspaceRotationAdjust: set factor to 0.0752
ElecMinimize: Iter:  28  F: -1818.128424773843108  |grad|_K:  1.236e-07  alpha:  3.833e-01  linmin:  2.233e-06  t[s]:  38429.40
	FillingsUpdate:  mu: -0.184216482  nElectrons: 336.000000
	SubspaceRotationAdjust: set factor to 0.0748
ElecMinimize: Iter:  29  F: -1818.128425075555924  |grad|_K:  1.021e-07  alpha:  4.153e-01  linmin: -2.356e-06  t[s]:  38828.61
	FillingsUpdate:  mu: -0.184242397  nElectrons: 336.000000
	SubspaceRotationAdjust: set factor to 0.0862
ElecMinimize: Iter:  30  F: -1818.128425339906016  |grad|_K:  8.820e-08  alpha:  5.332e-01  linmin: -5.944e-08  t[s]:  39225.08
	FillingsUpdate:  mu: -0.184253566  nElectrons: 336.000000
	SubspaceRotationAdjust: set factor to 0.0947
ElecMinimize: Iter:  31  F: -1818.128425531788253  |grad|_K:  7.526e-08  alpha:  5.191e-01  linmin:  1.485e-06  t[s]:  39624.69
	FillingsUpdate:  mu: -0.184265075  nElectrons: 336.000000
	SubspaceRotationAdjust: set factor to 0.0857
ElecMinimize: Iter:  32  F: -1818.128425640879414  |grad|_K:  7.075e-08  alpha:  4.057e-01  linmin: -1.029e-07  t[s]:  40026.32
	FillingsUpdate:  mu: -0.184274939  nElectrons: 336.000000
	SubspaceRotationAdjust: set factor to 0.068
ElecMinimize: Iter:  33  F: -1818.128425713629440  |grad|_K:  5.340e-08  alpha:  3.050e-01  linmin:  2.912e-06  t[s]:  40427.64
	FillingsUpdate:  mu: -0.184280458  nElectrons: 336.000000
	SubspaceRotationAdjust: set factor to 0.0801
ElecMinimize: Iter:  34  F: -1818.128425771641332  |grad|_K:  3.697e-08  alpha:  4.272e-01  linmin:  4.735e-07  t[s]:  40826.41
	FillingsUpdate:  mu: -0.184277145  nElectrons: 336.000000
	SubspaceRotationAdjust: set factor to 0.0925
ElecMinimize: Iter:  35  F: -1818.128425803757182  |grad|_K:  2.984e-08  alpha:  4.924e-01  linmin: -8.031e-06  t[s]:  41226.66
	FillingsUpdate:  mu: -0.184273723  nElectrons: 336.000000
	SubspaceRotationAdjust: set factor to 0.086
ElecMinimize: Iter:  36  F: -1818.128425821927976  |grad|_K:  2.840e-08  alpha:  4.255e-01  linmin: -1.076e-06  t[s]:  41632.11
	FillingsUpdate:  mu: -0.184271223  nElectrons: 336.000000
	SubspaceRotationAdjust: set factor to 0.0709
ElecMinimize: Iter:  37  F: -1818.128425833757547  |grad|_K:  2.116e-08  alpha:  3.044e-01  linmin: -6.514e-06  t[s]:  42037.00
	FillingsUpdate:  mu: -0.184268192  nElectrons: 336.000000
	SubspaceRotationAdjust: set factor to 0.0846
ElecMinimize: Iter:  38  F: -1818.128425843150808  |grad|_K:  1.403e-08  alpha:  3.836e-01  linmin: -3.451e-05  t[s]:  42435.36
	FillingsUpdate:  mu: -0.184264873  nElectrons: 336.000000
	SubspaceRotationAdjust: set factor to 0.0922
ElecMinimize: Iter:  39  F: -1818.128425848369261  |grad|_K:  1.396e-08  alpha:  5.446e-01  linmin:  2.536e-05  t[s]:  42836.93
ElecMinimize: Converged (|Delta F|<1.000000e-08 for 2 iters).
Setting wave functions to eigenvectors of Hamiltonian

# Ionic positions in lattice coordinates:
ion C   0.500000000000000   0.500000000000000   0.314726317528080 1
ion O   0.712425398191629   0.500000000000000   0.315388122733106 1
ion O   0.287574601808371   0.500000000000000   0.315388122733106 1
ion Pt   0.000000000000000   0.000000000000000  -0.155941670000000 0
ion Pt   0.500000000000000   0.500000000000000  -0.155941670000000 0
ion Pt   0.000000000000000   0.500000000000000  -0.155941670000000 0
ion Pt   0.500000000000000   0.000000000000000  -0.155941670000000 0
ion Pt   0.750000000000000   0.250000000000000  -0.077970830000000 0
ion Pt   0.250000000000000   0.750000000000000  -0.077970830000000 0
ion Pt   0.250000000000000   0.250000000000000  -0.077970830000000 0
ion Pt   0.750000000000000   0.750000000000000  -0.077970830000000 0
ion Pt   0.500000000000000   0.000000000000000  -0.000005533151006 1
ion Pt   0.000000000000000   0.000000000000000  -0.000007200062627 1
ion Pt   0.000000000000000   0.500000000000000   0.000045126150457 1
ion Pt   0.500000000000000   0.500000000000000  -0.000010243243691 1
ion Pt   0.750004904797811   0.249949416110594   0.079309756227775 1
ion Pt   0.249995095202189   0.750050583889406   0.079309756227775 1
ion Pt   0.249995095202189   0.249949416110594   0.079309756227775 1
ion Pt   0.750004904797811   0.750050583889406   0.079309756227775 1
ion Pt   0.000000000000000   0.000000000000000   0.156117583489595 1
ion Pt   0.000000000000000   0.500000000000000   0.156002733570179 1
ion Pt   0.500000000000000   0.000000000000000   0.156115795781937 1
ion Pt   0.500000000000000   0.500000000000000   0.155725702663531 1


# Forces in Lattice coordinates:
force C   0.000000000000000   0.000000000000000  -0.274711557764898 1
force O  -0.031801514015964   0.000000000000000   0.355162378519522 1
force O   0.031801514015966   0.000000000000000   0.355162378519522 1
force Pt   0.000000000000000   0.000000000000000  -0.161227877905540 0
force Pt   0.000000000000000   0.000000000000000  -0.161847472780673 0
force Pt   0.000000000000000   0.000000000000000  -0.138543830902495 0
force Pt   0.000000000000000   0.000000000000000  -0.161511758512987 0
force Pt   0.000054439580770  -0.000424888421497  -1.229889314353957 0
force Pt  -0.000054439580770   0.000424888421497  -1.229889314353957 0
force Pt  -0.000054439580770  -0.000424888421497  -1.229889314353957 0
force Pt   0.000054439580770   0.000424888421497  -1.229889314354412 0
force Pt   0.000000000000000   0.000000000000000   0.033547726657128 1
force Pt   0.000000000000000   0.000000000000000   0.033044547292279 1
force Pt   0.000000000000000   0.000000000000000   0.068518439410669 1
force Pt   0.000000000000000   0.000000000000000  -0.002313959223750 1
force Pt   0.001123266066179  -0.013230399512166   1.139643898623800 1
force Pt  -0.001123266066179   0.013230399512166   1.139643898624255 1
force Pt  -0.001123266066179  -0.013230399512164   1.139643898624255 1
force Pt   0.001123266066179   0.013230399512168   1.139643898624255 1
force Pt   0.000000000000000   0.000000000000000   0.192894959286678 1
force Pt   0.000000000000000   0.000000000000000   0.099433788005058 1
force Pt   0.000000000000000   0.000000000000000   0.191249657652857 1
force Pt   0.000000000000000   0.000000000000000  -0.086770567541564 1

# Energy components:
   Eewald =   -11950.4598885487503139
       EH =   -10412.4058030343512655
     Eloc =    20222.2896147250321519
      Enl =      -15.4899599613779611
      Exc =     -575.2968407054426052
 Exc_core =      324.9917684307491754
       KE =      588.4832865435008671
-------------------------------------
     Etot =    -1817.8878225506396120
       TS =        0.2406032977296483
-------------------------------------
        F =    -1818.1284258483692611

IonicMinimize: Iter:   1  F: -1818.128425848369261  |grad|_K:  1.127e-02  alpha:  1.000e+00  linmin: -5.756e-01  t[s]:  42901.37

#--- Lowdin population analysis ---
# oxidation-state C +0.711
# oxidation-state O -0.193 -0.193
# oxidation-state Pt +0.069 +0.069 +0.069 +0.069 -0.045 -0.045 -0.045 -0.045 +0.015 +0.015 +0.017 +0.012 -0.045 -0.045 -0.045 -0.045 +0.060 +0.048 +0.050 -0.018


-------- Electronic minimization -----------
	FillingsUpdate:  mu: -0.011649743  nElectrons: 336.000000
ElecMinimize: Iter:   0  F: -1816.395821763134563  |grad|_K:  3.536e-04  alpha:  1.000e+00
	FillingsUpdate:  mu: -0.080940014  nElectrons: 336.000000
	SubspaceRotationAdjust: set factor to 0.0566
ElecMinimize: Iter:   1  F: -1817.664149840444907  |grad|_K:  2.029e-04  alpha:  2.396e-01  linmin:  2.297e-02  t[s]:  43610.69
	FillingsUpdate:  mu: -0.208086340  nElectrons: 336.000000
	SubspaceRotationAdjust: set factor to 0.0772
ElecMinimize: Iter:   2  F: -1817.987088639033573  |grad|_K:  5.750e-05  alpha:  1.834e-01  linmin: -1.368e-04  t[s]:  44002.74
	FillingsUpdate:  mu: -0.185755836  nElectrons: 336.000000
	SubspaceRotationAdjust: set factor to 0.0794
ElecMinimize: Iter:   3  F: -1818.039311980462344  |grad|_K:  3.114e-05  alpha:  3.320e-01  linmin:  1.887e-04  t[s]:  44400.16
	FillingsUpdate:  mu: -0.180989322  nElectrons: 336.000000
	SubspaceRotationAdjust: set factor to 0.0658
ElecMinimize: Iter:   4  F: -1818.051048685682872  |grad|_K:  2.293e-05  alpha:  2.548e-01  linmin: -5.586e-06  t[s]:  44797.71
	FillingsUpdate:  mu: -0.182307508  nElectrons: 336.000000
	SubspaceRotationAdjust: set factor to 0.087
ElecMinimize: Iter:   5  F: -1818.064490471452473  |grad|_K:  2.214e-05  alpha:  5.395e-01  linmin:  1.070e-04  t[s]:  45195.64
	FillingsUpdate:  mu: -0.176627769  nElectrons: 336.000000
	SubspaceRotationAdjust: set factor to 0.0701
ElecMinimize: Iter:   6  F: -1818.081651256782834  |grad|_K:  2.807e-05  alpha:  7.475e-01  linmin:  2.458e-04  t[s]:  45590.27
	FillingsUpdate:  mu: -0.179485199  nElectrons: 336.000000
	SubspaceRotationAdjust: set factor to 0.057
ElecMinimize: Iter:   7  F: -1818.093155332829383  |grad|_K:  2.655e-05  alpha:  3.314e-01  linmin:  2.345e-04  t[s]:  45980.83
	FillingsUpdate:  mu: -0.179840411  nElectrons: 336.000000
	SubspaceRotationAdjust: set factor to 0.0587
ElecMinimize: Iter:   8  F: -1818.112225672657132  |grad|_K:  2.457e-05  alpha:  5.965e-01  linmin:  2.038e-04  t[s]:  46375.32
	FillingsUpdate:  mu: -0.178541157  nElectrons: 336.000000
	SubspaceRotationAdjust: set factor to 0.06
ElecMinimize: Iter:   9  F: -1818.127318460243941  |grad|_K:  2.263e-05  alpha:  5.412e-01  linmin:  1.748e-04  t[s]:  46766.26
	FillingsUpdate:  mu: -0.187525769  nElectrons: 336.000000
	SubspaceRotationAdjust: set factor to 0.0499
ElecMinimize: Iter:  10  F: -1818.134781706049580  |grad|_K:  1.418e-05  alpha:  3.190e-01  linmin:  5.045e-05  t[s]:  47165.43
	FillingsUpdate:  mu: -0.186885616  nElectrons: 336.000000
	SubspaceRotationAdjust: set factor to 0.0556
ElecMinimize: Iter:  11  F: -1818.138301327632234  |grad|_K:  8.460e-06  alpha:  3.701e-01  linmin:  4.746e-06  t[s]:  47559.17
	FillingsUpdate:  mu: -0.185413182  nElectrons: 336.000000
	SubspaceRotationAdjust: set factor to 0.0516
ElecMinimize: Iter:  12  F: -1818.139665137562588  |grad|_K:  5.734e-06  alpha:  4.008e-01  linmin:  2.448e-05  t[s]:  47953.28
	FillingsUpdate:  mu: -0.186050256  nElectrons: 336.000000
	SubspaceRotationAdjust: set factor to 0.0514
ElecMinimize: Iter:  13  F: -1818.140164558230708  |grad|_K:  3.532e-06  alpha:  3.198e-01  linmin: -1.252e-05  t[s]:  48349.54
	FillingsUpdate:  mu: -0.186978219  nElectrons: 336.000000
	SubspaceRotationAdjust: set factor to 0.0679
ElecMinimize: Iter:  14  F: -1818.140421311930822  |grad|_K:  2.445e-06  alpha:  4.326e-01  linmin:  5.938e-06  t[s]:  48742.71
	FillingsUpdate:  mu: -0.187052502  nElectrons: 336.000000
	SubspaceRotationAdjust: set factor to 0.0718
ElecMinimize: Iter:  15  F: -1818.140561000623848  |grad|_K:  2.369e-06  alpha:  4.915e-01  linmin:  9.809e-07  t[s]:  49138.17
	FillingsUpdate:  mu: -0.186981882  nElectrons: 336.000000
	SubspaceRotationAdjust: set factor to 0.0716
ElecMinimize: Iter:  16  F: -1818.140661200674458  |grad|_K:  1.918e-06  alpha:  3.757e-01  linmin: -4.246e-06  t[s]:  49534.55
	FillingsUpdate:  mu: -0.186965255  nElectrons: 336.000000
	SubspaceRotationAdjust: set factor to 0.0873
ElecMinimize: Iter:  17  F: -1818.140758928671858  |grad|_K:  1.698e-06  alpha:  5.586e-01  linmin:  7.772e-07  t[s]:  49928.89
	FillingsUpdate:  mu: -0.186896488  nElectrons: 336.000000
	SubspaceRotationAdjust: set factor to 0.0956
ElecMinimize: Iter:  18  F: -1818.140833698222878  |grad|_K:  1.645e-06  alpha:  5.456e-01  linmin:  3.148e-07  t[s]:  50323.70
	FillingsUpdate:  mu: -0.186611077  nElectrons: 336.000000
	SubspaceRotationAdjust: set factor to 0.0873
ElecMinimize: Iter:  19  F: -1818.140880801740423  |grad|_K:  1.528e-06  alpha:  3.662e-01  linmin: -3.585e-09  t[s]:  50720.07
	FillingsUpdate:  mu: -0.186233546  nElectrons: 336.000000
	SubspaceRotationAdjust: set factor to 0.0786
ElecMinimize: Iter:  20  F: -1818.140917221765449  |grad|_K:  1.210e-06  alpha:  3.279e-01  linmin:  1.223e-06  t[s]:  51118.00
	FillingsUpdate:  mu: -0.185942186  nElectrons: 336.000000
	SubspaceRotationAdjust: set factor to 0.0966
ElecMinimize: Iter:  21  F: -1818.140950381793118  |grad|_K:  9.400e-07  alpha:  4.765e-01  linmin: -2.093e-06  t[s]:  51512.95
	FillingsUpdate:  mu: -0.185839305  nElectrons: 336.000000
	SubspaceRotationAdjust: set factor to 0.11
ElecMinimize: Iter:  22  F: -1818.140973335619947  |grad|_K:  8.135e-07  alpha:  5.461e-01  linmin: -8.697e-07  t[s]:  51910.06
	FillingsUpdate:  mu: -0.185719241  nElectrons: 336.000000
	SubspaceRotationAdjust: set factor to 0.093
ElecMinimize: Iter:  23  F: -1818.140984584797934  |grad|_K:  8.249e-07  alpha:  3.573e-01  linmin:  9.926e-08  t[s]:  52310.07
	FillingsUpdate:  mu: -0.185635355  nElectrons: 336.000000
	SubspaceRotationAdjust: set factor to 0.0776
ElecMinimize: Iter:  24  F: -1818.140993314694015  |grad|_K:  5.710e-07  alpha:  2.698e-01  linmin: -1.910e-07  t[s]:  52706.21
	FillingsUpdate:  mu: -0.185646831  nElectrons: 336.000000
	SubspaceRotationAdjust: set factor to 0.0907
ElecMinimize: Iter:  25  F: -1818.141000413929305  |grad|_K:  4.151e-07  alpha:  4.579e-01  linmin:  2.387e-06  t[s]:  53105.48
	FillingsUpdate:  mu: -0.185734288  nElectrons: 336.000000
	SubspaceRotationAdjust: set factor to 0.104
ElecMinimize: Iter:  26  F: -1818.141004078202741  |grad|_K:  3.074e-07  alpha:  4.472e-01  linmin:  3.424e-06  t[s]:  53502.90
	FillingsUpdate:  mu: -0.185818824  nElectrons: 336.000000
	SubspaceRotationAdjust: set factor to 0.0968
ElecMinimize: Iter:  27  F: -1818.141005795264618  |grad|_K:  2.968e-07  alpha:  3.822e-01  linmin: -4.094e-07  t[s]:  53898.30
	FillingsUpdate:  mu: -0.185894490  nElectrons: 336.000000
	SubspaceRotationAdjust: set factor to 0.08
ElecMinimize: Iter:  28  F: -1818.141006945270647  |grad|_K:  2.175e-07  alpha:  2.746e-01  linmin:  6.111e-07  t[s]:  54292.71
	FillingsUpdate:  mu: -0.185969390  nElectrons: 336.000000
	SubspaceRotationAdjust: set factor to 0.0922
ElecMinimize: Iter:  29  F: -1818.141007856282158  |grad|_K:  1.517e-07  alpha:  4.052e-01  linmin:  3.986e-06  t[s]:  54682.69
	FillingsUpdate:  mu: -0.186033050  nElectrons: 336.000000
	SubspaceRotationAdjust: set factor to 0.112
ElecMinimize: Iter:  30  F: -1818.141008414182352  |grad|_K:  1.247e-07  alpha:  5.104e-01  linmin:  3.757e-06  t[s]:  55081.98
	FillingsUpdate:  mu: -0.186086762  nElectrons: 336.000000
	SubspaceRotationAdjust: set factor to 0.111
ElecMinimize: Iter:  31  F: -1818.141008753034157  |grad|_K:  1.243e-07  alpha:  4.580e-01  linmin: -1.244e-06  t[s]:  55482.65
	FillingsUpdate:  mu: -0.186112703  nElectrons: 336.000000
	SubspaceRotationAdjust: set factor to 0.0885
ElecMinimize: Iter:  32  F: -1818.141008931024317  |grad|_K:  9.919e-08  alpha:  2.412e-01  linmin: -2.278e-06  t[s]:  55878.86
	FillingsUpdate:  mu: -0.186126568  nElectrons: 336.000000
	SubspaceRotationAdjust: set factor to 0.0978
ElecMinimize: Iter:  33  F: -1818.141009118456168  |grad|_K:  7.145e-08  alpha:  3.955e-01  linmin: -3.988e-05  t[s]:  56273.60
	FillingsUpdate:  mu: -0.186130638  nElectrons: 336.000000
	SubspaceRotationAdjust: set factor to 0.115
ElecMinimize: Iter:  34  F: -1818.141009245148098  |grad|_K:  5.834e-08  alpha:  5.131e-01  linmin:  2.881e-06  t[s]:  56670.79
	FillingsUpdate:  mu: -0.186126810  nElectrons: 336.000000
	SubspaceRotationAdjust: set factor to 0.12
ElecMinimize: Iter:  35  F: -1818.141009317518410  |grad|_K:  4.838e-08  alpha:  4.465e-01  linmin: -5.071e-07  t[s]:  57061.84
	FillingsUpdate:  mu: -0.186120219  nElectrons: 336.000000
	SubspaceRotationAdjust: set factor to 0.099
ElecMinimize: Iter:  36  F: -1818.141009347587669  |grad|_K:  4.581e-08  alpha:  2.743e-01  linmin: -2.107e-06  t[s]:  57456.70
	FillingsUpdate:  mu: -0.186111416  nElectrons: 336.000000
	SubspaceRotationAdjust: set factor to 0.0918
ElecMinimize: Iter:  37  F: -1818.141009376506872  |grad|_K:  3.089e-08  alpha:  2.858e-01  linmin: -5.569e-06  t[s]:  57857.00
	FillingsUpdate:  mu: -0.186104331  nElectrons: 336.000000
	SubspaceRotationAdjust: set factor to 0.119
ElecMinimize: Iter:  38  F: -1818.141009398262895  |grad|_K:  2.185e-08  alpha:  4.470e-01  linmin: -5.888e-05  t[s]:  58250.57
	FillingsUpdate:  mu: -0.186097382  nElectrons: 336.000000
	SubspaceRotationAdjust: set factor to 0.137
ElecMinimize: Iter:  39  F: -1818.141009410692959  |grad|_K:  2.234e-08  alpha:  5.499e-01  linmin:  1.433e-05  t[s]:  58647.13
	FillingsUpdate:  mu: -0.186093227  nElectrons: 336.000000
	SubspaceRotationAdjust: set factor to 0.118
ElecMinimize: Iter:  40  F: -1818.141009418417298  |grad|_K:  2.460e-08  alpha:  3.121e-01  linmin: -2.359e-06  t[s]:  59047.20
	FillingsUpdate:  mu: -0.186089552  nElectrons: 336.000000
	SubspaceRotationAdjust: set factor to 0.103
ElecMinimize: Iter:  41  F: -1818.141009425635502  |grad|_K:  1.643e-08  alpha:  2.423e-01  linmin: -1.327e-05  t[s]:  59442.53
ElecMinimize: Converged (|Delta F|<1.000000e-08 for 2 iters).
Setting wave functions to eigenvectors of Hamiltonian

# Ionic positions in lattice coordinates:
ion C   0.500000000000000   0.500000000000000   0.313993841904637 1
ion O   0.714256797978764   0.500000000000000   0.316359085332617 1
ion O   0.285743202021236   0.500000000000000   0.316359085332617 1
ion Pt   0.000000000000000   0.000000000000000  -0.155941670000000 0
ion Pt   0.500000000000000   0.500000000000000  -0.155941670000000 0
ion Pt   0.000000000000000   0.500000000000000  -0.155941670000000 0
ion Pt   0.500000000000000   0.000000000000000  -0.155941670000000 0
ion Pt   0.750000000000000   0.250000000000000  -0.077970830000000 0
ion Pt   0.250000000000000   0.750000000000000  -0.077970830000000 0
ion Pt   0.250000000000000   0.250000000000000  -0.077970830000000 0
ion Pt   0.750000000000000   0.750000000000000  -0.077970830000000 0
ion Pt   0.500000000000000   0.000000000000000   0.000056677749366 1
ion Pt   0.000000000000000   0.000000000000000   0.000052854146448 1
ion Pt   0.000000000000000   0.500000000000000   0.000211642646714 1
ion Pt   0.500000000000000   0.500000000000000  -0.000021963560311 1
ion Pt   0.750028247163000   0.249796774751922   0.082490769946887 1
ion Pt   0.249971752837000   0.750203225248078   0.082490769946887 1
ion Pt   0.249971752837000   0.249796774751922   0.082490769946887 1
ion Pt   0.750028247163000   0.750203225248078   0.082490769946887 1
ion Pt   0.000000000000000   0.000000000000000   0.156620539089791 1
ion Pt   0.000000000000000   0.500000000000000   0.156241288901019 1
ion Pt   0.500000000000000   0.000000000000000   0.156614260556209 1
ion Pt   0.500000000000000   0.500000000000000   0.155403776095308 1


# Forces in Lattice coordinates:
force C   0.000000000000000   0.000000000000000  -0.153995953093416 1
force O  -0.228351763916075   0.000000000000000   0.255704029002730 1
force O   0.228351763916084   0.000000000000000   0.255704029002730 1
force Pt   0.000000000000000   0.000000000000000  -0.131173912372780 0
force Pt   0.000000000000000   0.000000000000000  -0.139533708936125 0
force Pt   0.000000000000000   0.000000000000000  -0.099103435209817 0
force Pt   0.000000000000000   0.000000000000000  -0.131696668722593 0
force Pt   0.000563223745467  -0.000393386952470  -1.016495185134862 0
force Pt  -0.000563223745467   0.000393386952470  -1.016495185133952 0
force Pt  -0.000563223745467  -0.000393386952470  -1.016495185134862 0
force Pt   0.000563223745467   0.000393386952470  -1.016495185134407 0
force Pt   0.000000000000000   0.000000000000000   0.118036638997645 1
force Pt   0.000000000000000   0.000000000000000   0.119071911686786 1
force Pt   0.000000000000000   0.000000000000000   0.122567250748151 1
force Pt   0.000000000000000   0.000000000000000   0.032517216897176 1
force Pt   0.002342676148519  -0.017105069796407   0.756208721073677 1
force Pt  -0.002342676148519   0.017105069796407   0.756208721073677 1
force Pt  -0.002342676148519  -0.017105069796406   0.756208721073677 1
force Pt   0.002342676148519   0.017105069796407   0.756208721073677 1
force Pt   0.000000000000000   0.000000000000000   0.240040107431307 1
force Pt   0.000000000000000   0.000000000000000   0.181886969914089 1
force Pt   0.000000000000000   0.000000000000000   0.238007233097250 1
force Pt   0.000000000000000   0.000000000000000   0.121495486802662 1

# Energy components:
   Eewald =   -11988.5744492811609234
       EH =   -10450.9095279786215542
     Eloc =    20299.0188934987272660
      Enl =      -15.5127195868477621
      Exc =     -575.2382552387797432
 Exc_core =      324.9917531923067600
       KE =      588.3236595842196266
-------------------------------------
     Etot =    -1817.9006458101580392
       TS =        0.2403636154775547
-------------------------------------
        F =    -1818.1410094256355023

IonicMinimize: Iter:   2  F: -1818.141009425635502  |grad|_K:  8.990e-03  alpha:  6.116e-01  linmin: -5.210e-01  t[s]:  59508.58

#--- Lowdin population analysis ---
# oxidation-state C +0.703
# oxidation-state O -0.196 -0.196
# oxidation-state Pt +0.070 +0.070 +0.071 +0.070 -0.046 -0.046 -0.046 -0.046 +0.013 +0.013 +0.015 +0.010 -0.045 -0.045 -0.045 -0.045 +0.065 +0.054 +0.056 -0.017


-------- Electronic minimization -----------
	FillingsUpdate:  mu: +0.031107251  nElectrons: 336.000000
ElecMinimize: Iter:   0  F: -1816.228479751446002  |grad|_K:  3.895e-04  alpha:  1.000e+00
	FillingsUpdate:  mu: -0.055370407  nElectrons: 336.000000
	SubspaceRotationAdjust: set factor to 0.0613
ElecMinimize: Iter:   1  F: -1817.549036598827570  |grad|_K:  2.447e-04  alpha:  2.175e-01  linmin:  2.737e-02  t[s]:  60200.90
	FillingsUpdate:  mu: -0.209402403  nElectrons: 336.000000
	SubspaceRotationAdjust: set factor to 0.121
ElecMinimize: Iter:   2  F: -1817.979236426317584  |grad|_K:  6.511e-05  alpha:  1.766e-01  linmin: -2.848e-04  t[s]:  60600.70
	FillingsUpdate:  mu: -0.186614585  nElectrons: 336.000000
	SubspaceRotationAdjust: set factor to 0.0955
ElecMinimize: Iter:   3  F: -1818.040996321351713  |grad|_K:  4.283e-05  alpha:  3.064e-01  linmin:  5.775e-04  t[s]:  60997.68
	FillingsUpdate:  mu: -0.184212878  nElectrons: 336.000000
	SubspaceRotationAdjust: set factor to 0.0803
ElecMinimize: Iter:   4  F: -1818.055507388495926  |grad|_K:  2.538e-05  alpha:  1.668e-01  linmin: -1.825e-05  t[s]:  61397.03
ElecMinimize: 	Predicted alpha/alphaT>3.000000, increasing alphaT to 5.005129e-01.
	FillingsUpdate:  mu: -0.180339255  nElectrons: 336.000000
	SubspaceRotationAdjust: set factor to 0.117
ElecMinimize: Iter:   5  F: -1818.073471348193152  |grad|_K:  2.440e-05  alpha:  5.865e-01  linmin:  2.436e-05  t[s]:  61899.99
	FillingsUpdate:  mu: -0.173816683  nElectrons: 336.000000
	SubspaceRotationAdjust: set factor to 0.074
ElecMinimize: Iter:   6  F: -1818.089881042834122  |grad|_K:  3.616e-05  alpha:  5.802e-01  linmin:  2.913e-04  t[s]:  62298.02
	FillingsUpdate:  mu: -0.186288839  nElectrons: 336.000000
	SubspaceRotationAdjust: set factor to 0.0685
ElecMinimize: Iter:   7  F: -1818.103906110268326  |grad|_K:  2.571e-05  alpha:  2.462e-01  linmin:  2.838e-04  t[s]:  62700.41
	FillingsUpdate:  mu: -0.181339519  nElectrons: 336.000000
	SubspaceRotationAdjust: set factor to 0.0759
ElecMinimize: Iter:   8  F: -1818.123102598071000  |grad|_K:  2.273e-05  alpha:  6.317e-01  linmin: -3.692e-05  t[s]:  63096.09
	FillingsUpdate:  mu: -0.176675436  nElectrons: 336.000000
	SubspaceRotationAdjust: set factor to 0.0617
ElecMinimize: Iter:   9  F: -1818.134855065404963  |grad|_K:  2.435e-05  alpha:  4.679e-01  linmin:  6.278e-05  t[s]:  63495.88
	FillingsUpdate:  mu: -0.187303247  nElectrons: 336.000000
	SubspaceRotationAdjust: set factor to 0.0565
ElecMinimize: Iter:  10  F: -1818.143336890939281  |grad|_K:  1.495e-05  alpha:  3.079e-01  linmin:  2.885e-06  t[s]:  63898.18
	FillingsUpdate:  mu: -0.188500424  nElectrons: 336.000000
	SubspaceRotationAdjust: set factor to 0.0628
ElecMinimize: Iter:  11  F: -1818.147320071651393  |grad|_K:  9.032e-06  alpha:  3.750e-01  linmin: -1.883e-05  t[s]:  64297.02
	FillingsUpdate:  mu: -0.187678457  nElectrons: 336.000000
	SubspaceRotationAdjust: set factor to 0.0508
ElecMinimize: Iter:  12  F: -1818.148704713593133  |grad|_K:  6.798e-06  alpha:  3.564e-01  linmin:  2.674e-05  t[s]:  64694.75
	FillingsUpdate:  mu: -0.187723518  nElectrons: 336.000000
	SubspaceRotationAdjust: set factor to 0.054
ElecMinimize: Iter:  13  F: -1818.149433103080582  |grad|_K:  3.904e-06  alpha:  3.319e-01  linmin: -2.062e-05  t[s]:  65101.03
	FillingsUpdate:  mu: -0.188366943  nElectrons: 336.000000
	SubspaceRotationAdjust: set factor to 0.0666
ElecMinimize: Iter:  14  F: -1818.149735670714790  |grad|_K:  2.743e-06  alpha:  4.171e-01  linmin: -3.220e-06  t[s]:  65500.07
	FillingsUpdate:  mu: -0.188633153  nElectrons: 336.000000
	SubspaceRotationAdjust: set factor to 0.0663
ElecMinimize: Iter:  15  F: -1818.149880666915124  |grad|_K:  2.445e-06  alpha:  4.050e-01  linmin:  5.050e-07  t[s]:  65902.69
	FillingsUpdate:  mu: -0.188659512  nElectrons: 336.000000
	SubspaceRotationAdjust: set factor to 0.0726
ElecMinimize: Iter:  16  F: -1818.150012809580858  |grad|_K:  2.031e-06  alpha:  4.646e-01  linmin: -8.384e-06  t[s]:  66306.02
	FillingsUpdate:  mu: -0.188623261  nElectrons: 336.000000
	SubspaceRotationAdjust: set factor to 0.0867
ElecMinimize: Iter:  17  F: -1818.150112817921354  |grad|_K:  1.870e-06  alpha:  5.094e-01  linmin: -6.220e-08  t[s]:  66707.08
	FillingsUpdate:  mu: -0.188504698  nElectrons: 336.000000
	SubspaceRotationAdjust: set factor to 0.0936
ElecMinimize: Iter:  18  F: -1818.150199505771525  |grad|_K:  1.890e-06  alpha:  5.214e-01  linmin:  1.887e-06  t[s]:  67105.03
	FillingsUpdate:  mu: -0.188197975  nElectrons: 336.000000
	SubspaceRotationAdjust: set factor to 0.082
ElecMinimize: Iter:  19  F: -1818.150265913951216  |grad|_K:  1.852e-06  alpha:  3.913e-01  linmin: -3.343e-06  t[s]:  67503.21
	FillingsUpdate:  mu: -0.187810335  nElectrons: 336.000000
	SubspaceRotationAdjust: set factor to 0.0752
ElecMinimize: Iter:  20  F: -1818.150319681798464  |grad|_K:  1.380e-06  alpha:  3.293e-01  linmin:  3.052e-06  t[s]:  67910.84
	FillingsUpdate:  mu: -0.187497073  nElectrons: 336.000000
	SubspaceRotationAdjust: set factor to 0.0899
ElecMinimize: Iter:  21  F: -1818.150369031960736  |grad|_K:  1.118e-06  alpha:  5.448e-01  linmin: -2.386e-06  t[s]:  68308.88
	FillingsUpdate:  mu: -0.187337255  nElectrons: 336.000000
	SubspaceRotationAdjust: set factor to 0.0963
ElecMinimize: Iter:  22  F: -1818.150397881477602  |grad|_K:  9.822e-07  alpha:  4.850e-01  linmin: -1.507e-06  t[s]:  68710.61
	FillingsUpdate:  mu: -0.187220994  nElectrons: 336.000000
	SubspaceRotationAdjust: set factor to 0.0841
ElecMinimize: Iter:  23  F: -1818.150413714615070  |grad|_K:  8.451e-07  alpha:  3.450e-01  linmin:  9.993e-07  t[s]:  69107.61
	FillingsUpdate:  mu: -0.187161786  nElectrons: 336.000000
	SubspaceRotationAdjust: set factor to 0.0717
ElecMinimize: Iter:  24  F: -1818.150424046433727  |grad|_K:  6.216e-07  alpha:  3.042e-01  linmin: -4.286e-07  t[s]:  69506.75
	FillingsUpdate:  mu: -0.187152461  nElectrons: 336.000000
	SubspaceRotationAdjust: set factor to 0.0834
ElecMinimize: Iter:  25  F: -1818.150431556296780  |grad|_K:  4.471e-07  alpha:  4.086e-01  linmin: -2.578e-08  t[s]:  69899.89
	FillingsUpdate:  mu: -0.187199502  nElectrons: 336.000000
	SubspaceRotationAdjust: set factor to 0.0959
ElecMinimize: Iter:  26  F: -1818.150436069736088  |grad|_K:  3.449e-07  alpha:  4.748e-01  linmin: -5.418e-07  t[s]:  70301.70
	FillingsUpdate:  mu: -0.187285389  nElectrons: 336.000000
	SubspaceRotationAdjust: set factor to 0.091
ElecMinimize: Iter:  27  F: -1818.150438150381888  |grad|_K:  3.108e-07  alpha:  3.676e-01  linmin:  3.699e-06  t[s]:  70703.64
	FillingsUpdate:  mu: -0.187382807  nElectrons: 336.000000
	SubspaceRotationAdjust: set factor to 0.0784
ElecMinimize: Iter:  28  F: -1818.150439575447990  |grad|_K:  2.489e-07  alpha:  3.104e-01  linmin: -5.038e-06  t[s]:  71104.35
	FillingsUpdate:  mu: -0.187485078  nElectrons: 336.000000
	SubspaceRotationAdjust: set factor to 0.0864
ElecMinimize: Iter:  29  F: -1818.150440821379789  |grad|_K:  1.813e-07  alpha:  4.230e-01  linmin:  2.124e-06  t[s]:  71503.84
	FillingsUpdate:  mu: -0.187548777  nElectrons: 336.000000
	SubspaceRotationAdjust: set factor to 0.102
ElecMinimize: Iter:  30  F: -1818.150441560190075  |grad|_K:  1.433e-07  alpha:  4.729e-01  linmin: -4.500e-06  t[s]:  71901.31
	FillingsUpdate:  mu: -0.187605315  nElectrons: 336.000000
	SubspaceRotationAdjust: set factor to 0.103
ElecMinimize: Iter:  31  F: -1818.150441997745929  |grad|_K:  1.338e-07  alpha:  4.477e-01  linmin:  3.254e-05  t[s]:  72304.96
	FillingsUpdate:  mu: -0.187641384  nElectrons: 336.000000
	SubspaceRotationAdjust: set factor to 0.0836
ElecMinimize: Iter:  32  F: -1818.150442242527106  |grad|_K:  1.130e-07  alpha:  2.890e-01  linmin: -3.524e-06  t[s]:  72706.16
	FillingsUpdate:  mu: -0.187663570  nElectrons: 336.000000
	SubspaceRotationAdjust: set factor to 0.083
ElecMinimize: Iter:  33  F: -1818.150442438472510  |grad|_K:  7.857e-08  alpha:  3.229e-01  linmin: -1.992e-05  t[s]:  73101.36
	FillingsUpdate:  mu: -0.187672296  nElectrons: 336.000000
	SubspaceRotationAdjust: set factor to 0.0996
ElecMinimize: Iter:  34  F: -1818.150442578339153  |grad|_K:  6.282e-08  alpha:  4.806e-01  linmin:  1.164e-04  t[s]:  73505.34
	FillingsUpdate:  mu: -0.187674162  nElectrons: 336.000000
	SubspaceRotationAdjust: set factor to 0.106
ElecMinimize: Iter:  35  F: -1818.150442671224710  |grad|_K:  5.532e-08  alpha:  5.019e-01  linmin:  1.372e-04  t[s]:  73905.87
	FillingsUpdate:  mu: -0.187668787  nElectrons: 336.000000
	SubspaceRotationAdjust: set factor to 0.0884
ElecMinimize: Iter:  36  F: -1818.150442712729728  |grad|_K:  4.843e-08  alpha:  2.951e-01  linmin:  3.088e-05  t[s]:  74307.27
	FillingsUpdate:  mu: -0.187660298  nElectrons: 336.000000
	SubspaceRotationAdjust: set factor to 0.0778
ElecMinimize: Iter:  37  F: -1818.150442746534509  |grad|_K:  3.545e-08  alpha:  3.064e-01  linmin:  1.089e-04  t[s]:  74704.31
	FillingsUpdate:  mu: -0.187652724  nElectrons: 336.000000
	SubspaceRotationAdjust: set factor to 0.0927
ElecMinimize: Iter:  38  F: -1818.150442771924872  |grad|_K:  2.670e-08  alpha:  4.462e-01  linmin:  6.484e-05  t[s]:  75100.67
	FillingsUpdate:  mu: -0.187647408  nElectrons: 336.000000
	SubspaceRotationAdjust: set factor to 0.108
ElecMinimize: Iter:  39  F: -1818.150442787174370  |grad|_K:  2.266e-08  alpha:  4.705e-01  linmin:  2.536e-04  t[s]:  75496.75
	FillingsUpdate:  mu: -0.187641944  nElectrons: 336.000000
	SubspaceRotationAdjust: set factor to 0.101
ElecMinimize: Iter:  40  F: -1818.150442797242704  |grad|_K:  2.440e-08  alpha:  4.211e-01  linmin:  6.878e-05  t[s]:  75896.67
	FillingsUpdate:  mu: -0.187637661  nElectrons: 336.000000
	SubspaceRotationAdjust: set factor to 0.0902
ElecMinimize: Iter:  41  F: -1818.150442803911801  |grad|_K:  1.830e-08  alpha:  2.574e-01  linmin: -2.195e-04  t[s]:  76296.07
	FillingsUpdate:  mu: -0.187634547  nElectrons: 336.000000
	SubspaceRotationAdjust: set factor to 0.114
ElecMinimize: Iter:  42  F: -1818.150442812489700  |grad|_K:  1.430e-08  alpha:  4.460e-01  linmin: -2.786e-04  t[s]:  76694.52
ElecMinimize: Converged (|Delta F|<1.000000e-08 for 2 iters).
Setting wave functions to eigenvectors of Hamiltonian

# Ionic positions in lattice coordinates:
ion C   0.500000000000000   0.500000000000000   0.313484287692511 1
ion O   0.713044389535752   0.500000000000000   0.317380639078572 1
ion O   0.286955610464248   0.500000000000000   0.317380639078572 1
ion Pt   0.000000000000000   0.000000000000000  -0.155941670000000 0
ion Pt   0.500000000000000   0.500000000000000  -0.155941670000000 0
ion Pt   0.000000000000000   0.500000000000000  -0.155941670000000 0
ion Pt   0.500000000000000   0.000000000000000  -0.155941670000000 0
ion Pt   0.750000000000000   0.250000000000000  -0.077970830000000 0
ion Pt   0.250000000000000   0.750000000000000  -0.077970830000000 0
ion Pt   0.250000000000000   0.250000000000000  -0.077970830000000 0
ion Pt   0.750000000000000   0.750000000000000  -0.077970830000000 0
ion Pt   0.500000000000000   0.000000000000000   0.000521120825807 1
ion Pt   0.000000000000000   0.000000000000000   0.000520173815442 1
ion Pt   0.000000000000000   0.500000000000000   0.000703215031353 1
ion Pt   0.500000000000000   0.500000000000000   0.000123394690552 1
ion Pt   0.750111578391966   0.249489842319706   0.085669194067874 1
ion Pt   0.249888421608034   0.750510157680294   0.085669194067874 1
ion Pt   0.249888421608034   0.249489842319706   0.085669194067874 1
ion Pt   0.750111578391966   0.750510157680294   0.085669194067874 1
ion Pt   0.000000000000000   0.000000000000000   0.157596806557440 1
ion Pt   0.000000000000000   0.500000000000000   0.156964228547480 1
ion Pt   0.500000000000000   0.000000000000000   0.157581595777522 1
ion Pt   0.500000000000000   0.500000000000000   0.155784470361774 1


# Forces in Lattice coordinates:
force C   0.000000000000000   0.000000000000000  -0.038963137228594 1
force O  -0.105424625956692   0.000000000000000   0.185046358204879 1
force O   0.105424625956692   0.000000000000000   0.185046358204879 1
force Pt   0.000000000000000   0.000000000000000  -0.073289732102707 0
force Pt   0.000000000000000   0.000000000000000  -0.106502753472726 0
force Pt   0.000000000000000   0.000000000000000  -0.038929986694391 0
force Pt   0.000000000000000   0.000000000000000  -0.074584931835656 0
force Pt   0.001630126188934  -0.002930771368804  -0.839609403727225 0
force Pt  -0.001630126188934   0.002930771368804  -0.839609403726770 0
force Pt  -0.001630126188934  -0.002930771368803  -0.839609403726315 0
force Pt   0.001630126188934   0.002930771368804  -0.839609403726770 0
force Pt   0.000000000000000   0.000000000000000   0.149928624971091 1
force Pt   0.000000000000000   0.000000000000000   0.149798664564881 1
force Pt   0.000000000000000   0.000000000000000   0.148097320541175 1
force Pt   0.000000000000000   0.000000000000000   0.092353468519931 1
force Pt   0.001462017602806  -0.011907485061690   0.452312120686948 1
force Pt  -0.001462017602806   0.011907485061692   0.452312120686948 1
force Pt  -0.001462017602806  -0.011907485061692   0.452312120686948 1
force Pt   0.001462017602806   0.011907485061690   0.452312120686948 1
force Pt   0.000000000000000   0.000000000000000   0.272055598809673 1
force Pt   0.000000000000000   0.000000000000000   0.224031727820876 1
force Pt   0.000000000000000   0.000000000000000   0.267464702910364 1
force Pt   0.000000000000000   0.000000000000000   0.200950693936485 1

# Energy components:
   Eewald =   -12036.6366659750638064
       EH =   -10499.2798791538789374
     Eloc =    20395.4906089031646843
      Enl =      -15.5137630096721679
      Exc =     -575.2027456746543521
 Exc_core =      324.9917644992431178
       KE =      588.2407538913395229
-------------------------------------
     Etot =    -1817.9099265195236512
       TS =        0.2405162929659470
-------------------------------------
        F =    -1818.1504428124897004

IonicMinimize: Iter:   3  F: -1818.150442812489700  |grad|_K:  5.617e-03  alpha:  4.458e-01  linmin: -5.276e-01  t[s]:  76759.22

#--- Lowdin population analysis ---
# oxidation-state C +0.703
# oxidation-state O -0.197 -0.197
# oxidation-state Pt +0.071 +0.072 +0.072 +0.071 -0.047 -0.047 -0.047 -0.047 +0.010 +0.010 +0.013 +0.007 -0.045 -0.045 -0.045 -0.045 +0.069 +0.058 +0.060 -0.018


-------- Electronic minimization -----------
	FillingsUpdate:  mu: +0.129314368  nElectrons: 336.000000
ElecMinimize: Iter:   0  F: -1815.523267264169135  |grad|_K:  4.825e-04  alpha:  1.000e+00
	FillingsUpdate:  mu: +0.015811000  nElectrons: 336.000000
	SubspaceRotationAdjust: set factor to 0.0671
ElecMinimize: Iter:   1  F: -1817.208388321083021  |grad|_K:  3.343e-04  alpha:  2.012e-01  linmin:  3.567e-02  t[s]:  77462.64
	FillingsUpdate:  mu: -0.199656660  nElectrons: 336.000000
	SubspaceRotationAdjust: set factor to 0.134
[...]
FluidMinimize: Iter:  30  G: -0.031954805027800  |grad|_K:  7.610e-06  alpha:  1.839e-02  linmin: -1.050e-03  cgtest:  4.714e-02  t[s]:  36022.90
FluidMinimize: Iter:  31  G: -0.031955487574586  |grad|_K:  1.194e-05  alpha:  1.207e-02  linmin:  3.900e-06  cgtest: -1.451e-02  t[s]:  36023.44
FluidMinimize: Iter:  32  G: -0.031956602387476  |grad|_K:  4.443e-06  alpha:  8.036e-03  linmin: -1.136e-05  cgtest:  4.004e-02  t[s]:  36024.00
FluidMinimize: Iter:  33  G: -0.031956862088043  |grad|_K:  6.940e-06  alpha:  1.361e-02  linmin:  2.257e-04  cgtest:  6.822e-04  t[s]:  36024.54
FluidMinimize: Iter:  34  G: -0.031957226205672  |grad|_K:  6.319e-06  alpha:  7.868e-03  linmin:  1.142e-04  cgtest:  9.573e-03  t[s]:  36025.10
FluidMinimize: Converged (|Delta G|<3.650443e-07 for 2 iters).

Fluid minimization # 8 changed total free energy by -4.068318e-05 at t[s]:  36025.42

-------------------- Electronic Minimization # 8 ---------------------
	FillingsUpdate:  mu: -0.173600000  nElectrons: 336.134476
ElecMinimize: Iter:   0  G: -1759.835954792522216  |grad|_K:  4.450e-06  alpha:  1.000e+00
	FillingsUpdate:  mu: -0.173600000  nElectrons: 336.160543
	SubspaceRotationAdjust: set factor to 0.0189
ElecMinimize: Iter:   1  G: -1759.836109047999571  |grad|_K:  8.941e-07  alpha:  1.643e-01  linmin:  1.947e-03  t[s]:  36600.17
	FillingsUpdate:  mu: -0.173600000  nElectrons: 336.161766
	SubspaceRotationAdjust: set factor to 0.0302
ElecMinimize: Iter:   2  G: -1759.836123885087318  |grad|_K:  3.906e-07  alpha:  3.913e-01  linmin:  2.034e-05  t[s]:  36999.46
	FillingsUpdate:  mu: -0.173600000  nElectrons: 336.162935
	SubspaceRotationAdjust: set factor to 0.0369
ElecMinimize: Iter:   3  G: -1759.836127702763861  |grad|_K:  2.738e-07  alpha:  5.262e-01  linmin:  1.667e-05  t[s]:  37402.23
	FillingsUpdate:  mu: -0.173600000  nElectrons: 336.162648
	SubspaceRotationAdjust: set factor to 0.0385
ElecMinimize: Iter:   4  G: -1759.836129677413510  |grad|_K:  2.565e-07  alpha:  5.538e-01  linmin:  2.928e-05  t[s]:  37802.93
	FillingsUpdate:  mu: -0.173600000  nElectrons: 336.164337
	SubspaceRotationAdjust: set factor to 0.0282
ElecMinimize: Iter:   5  G: -1759.836130377435211  |grad|_K:  2.658e-07  alpha:  2.242e-01  linmin: -2.334e-06  t[s]:  38204.54
	FillingsUpdate:  mu: -0.173600000  nElectrons: 336.163619
	SubspaceRotationAdjust: set factor to 0.0268
ElecMinimize: Iter:   6  G: -1759.836131422613789  |grad|_K:  1.598e-07  alpha:  3.115e-01  linmin:  1.143e-04  t[s]:  38606.98
	FillingsUpdate:  mu: -0.173600000  nElectrons: 336.164151
	SubspaceRotationAdjust: set factor to 0.0302
ElecMinimize: Iter:   7  G: -1759.836132230824660  |grad|_K:  1.362e-07  alpha:  6.669e-01  linmin: -1.229e-05  t[s]:  39011.12
	FillingsUpdate:  mu: -0.173600000  nElectrons: 336.163691
	SubspaceRotationAdjust: set factor to 0.0269
ElecMinimize: Iter:   8  G: -1759.836132757969153  |grad|_K:  1.510e-07  alpha:  5.965e-01  linmin: -2.354e-05  t[s]:  39413.54
	FillingsUpdate:  mu: -0.173600000  nElectrons: 336.164713
	SubspaceRotationAdjust: set factor to 0.0198
ElecMinimize: Iter:   9  G: -1759.836133055685423  |grad|_K:  1.408e-07  alpha:  2.747e-01  linmin: -2.408e-06  t[s]:  39811.55
	FillingsUpdate:  mu: -0.173600000  nElectrons: 336.164413
	SubspaceRotationAdjust: set factor to 0.0201
ElecMinimize: Iter:  10  G: -1759.836133486882545  |grad|_K:  1.112e-07  alpha:  4.574e-01  linmin:  1.764e-05  t[s]:  40213.41
	FillingsUpdate:  mu: -0.173600000  nElectrons: 336.164479
	SubspaceRotationAdjust: set factor to 0.023
ElecMinimize: Iter:  11  G: -1759.836133779345801  |grad|_K:  9.741e-08  alpha:  4.978e-01  linmin:  5.809e-05  t[s]:  40613.24
	FillingsUpdate:  mu: -0.173600000  nElectrons: 336.165135
	SubspaceRotationAdjust: set factor to 0.02
ElecMinimize: Iter:  12  G: -1759.836133975721168  |grad|_K:  8.752e-08  alpha:  4.376e-01  linmin: -3.478e-05  t[s]:  41012.41
ElecMinimize: Converged (|Delta G|<3.650443e-07 for 2 iters).
Setting wave functions to eigenvectors of Hamiltonian

Electronic minimization # 8 changed total free energy by -1.929722e-05 at t[s]:  41030.95

---------------------- Fluid Minimization # 9 -----------------------
FluidMinimize: Iter:   0  G: -0.034097244398152  |grad|_K:  3.890e-05  alpha:  1.000e+00
FluidMinimize: Iter:   1  G: -0.034097312232461  |grad|_K:  3.878e-05  alpha:  2.320e-05  linmin: -1.551e-01  cgtest:  1.000e+00  t[s]:  41031.83
FluidMinimize: Encountered beta<0, resetting CG.
FluidMinimize: 	Predicted alpha/alphaT>3.000000, increasing alphaT to 6.958830e-05.
FluidMinimize: 	Predicted alpha/alphaT>3.000000, increasing alphaT to 2.087649e-04.
FluidMinimize: 	Predicted alpha/alphaT>3.000000, increasing alphaT to 6.262947e-04.
FluidMinimize: 	Predicted alpha/alphaT>3.000000, increasing alphaT to 1.878884e-03.
FluidMinimize: 	Predicted alpha/alphaT>3.000000, increasing alphaT to 5.636652e-03.
FluidMinimize: Iter:   2  G: -0.034108126770448  |grad|_K:  1.484e-05  alpha:  7.432e-03  linmin:  1.361e-04  cgtest: -1.409e-03  t[s]:  41033.61
FluidMinimize: Iter:   3  G: -0.034110131413210  |grad|_K:  1.563e-05  alpha:  9.418e-03  linmin:  4.499e-04  cgtest: -3.576e-03  t[s]:  41034.16
FluidMinimize: Iter:   4  G: -0.034111325191170  |grad|_K:  7.831e-06  alpha:  4.913e-03  linmin: -2.208e-03  cgtest:  6.881e-02  t[s]:  41034.71
FluidMinimize: 	Predicted alpha/alphaT>3.000000, increasing alphaT to 1.473915e-02.
FluidMinimize: Iter:   5  G: -0.034113974784861  |grad|_K:  5.405e-06  alpha:  4.389e-02  linmin: -1.529e-03  cgtest: -2.702e-02  t[s]:  41035.53
FluidMinimize: Iter:   6  G: -0.034114131898636  |grad|_K:  5.373e-06  alpha:  5.563e-03  linmin:  7.922e-04  cgtest: -2.114e-02  t[s]:  41036.08
FluidMinimize: 	Predicted alpha/alphaT>3.000000, increasing alphaT to 1.668864e-02.
FluidMinimize: Iter:   7  G: -0.034114714898538  |grad|_K:  4.920e-06  alpha:  2.117e-02  linmin:  2.360e-03  cgtest:  6.145e-02  t[s]:  41036.88
FluidMinimize: Iter:   8  G: -0.034115226026005  |grad|_K:  7.538e-06  alpha:  2.216e-02  linmin: -3.889e-05  cgtest:  1.037e-02  t[s]:  41037.44
FluidMinimize: Iter:   9  G: -0.034115516445101  |grad|_K:  5.087e-06  alpha:  5.443e-03  linmin:  3.975e-03  cgtest: -6.001e-02  t[s]:  41038.00
FluidMinimize: Iter:  10  G: -0.034115715310189  |grad|_K:  2.985e-06  alpha:  8.174e-03  linmin:  3.618e-04  cgtest:  7.194e-02  t[s]:  41038.56
FluidMinimize: Converged (|Delta G|<4.068318e-07 for 2 iters).

Fluid minimization # 9 changed total free energy by -1.847091e-05 at t[s]:  41038.88

-------------------- Electronic Minimization # 9 ---------------------
	FillingsUpdate:  mu: -0.173600000  nElectrons: 336.064131
ElecMinimize: Iter:   0  G: -1759.833760046608177  |grad|_K:  1.810e-05  alpha:  1.000e+00
	FillingsUpdate:  mu: -0.173600000  nElectrons: 336.167928
	SubspaceRotationAdjust: set factor to 0.0131
ElecMinimize: Iter:   1  G: -1759.836103157806974  |grad|_K:  1.706e-06  alpha:  1.542e-01  linmin:  2.470e-02  t[s]:  41610.68
	FillingsUpdate:  mu: -0.173600000  nElectrons: 336.168953
	SubspaceRotationAdjust: set factor to 0.0154
ElecMinimize: Iter:   2  G: -1759.836148252270959  |grad|_K:  6.493e-07  alpha:  3.326e-01  linmin: -5.078e-06  t[s]:  42011.83
	FillingsUpdate:  mu: -0.173600000  nElectrons: 336.173796
	SubspaceRotationAdjust: set factor to 0.0135
ElecMinimize: Iter:   3  G: -1759.836156687593302  |grad|_K:  3.585e-07  alpha:  4.207e-01  linmin: -6.233e-05  t[s]:  42414.04
	FillingsUpdate:  mu: -0.173600000  nElectrons: 336.173162
	SubspaceRotationAdjust: set factor to 0.0155
ElecMinimize: Iter:   4  G: -1759.836160005651664  |grad|_K:  2.400e-07  alpha:  5.428e-01  linmin:  2.765e-05  t[s]:  42811.57
	FillingsUpdate:  mu: -0.173600000  nElectrons: 336.174420
	SubspaceRotationAdjust: set factor to 0.0169
ElecMinimize: Iter:   5  G: -1759.836161879087285  |grad|_K:  2.156e-07  alpha:  6.838e-01  linmin: -8.696e-05  t[s]:  43216.90
	FillingsUpdate:  mu: -0.173600000  nElectrons: 336.173647
	SubspaceRotationAdjust: set factor to 0.0171
ElecMinimize: Iter:   6  G: -1759.836163351782488  |grad|_K:  2.019e-07  alpha:  6.657e-01  linmin:  3.812e-05  t[s]:  43616.59
	FillingsUpdate:  mu: -0.173600000  nElectrons: 336.174781
	SubspaceRotationAdjust: set factor to 0.0151
ElecMinimize: Iter:   7  G: -1759.836164595258424  |grad|_K:  1.795e-07  alpha:  6.420e-01  linmin: -2.780e-05  t[s]:  44016.16
	FillingsUpdate:  mu: -0.173600000  nElectrons: 336.173752
	SubspaceRotationAdjust: set factor to 0.0114
ElecMinimize: Iter:   8  G: -1759.836165354293598  |grad|_K:  1.309e-07  alpha:  4.954e-01  linmin:  2.851e-05  t[s]:  44418.26
	FillingsUpdate:  mu: -0.173600000  nElectrons: 336.174396
	SubspaceRotationAdjust: set factor to 0.0105
ElecMinimize: Iter:   9  G: -1759.836165815441973  |grad|_K:  8.637e-08  alpha:  5.664e-01  linmin:  5.264e-05  t[s]:  44817.39
	FillingsUpdate:  mu: -0.173600000  nElectrons: 336.174278
	SubspaceRotationAdjust: set factor to 0.0131
ElecMinimize: Iter:  10  G: -1759.836166031637731  |grad|_K:  6.268e-08  alpha:  6.089e-01  linmin: -7.278e-05  t[s]:  45220.09
	FillingsUpdate:  mu: -0.173600000  nElectrons: 336.174247
	SubspaceRotationAdjust: set factor to 0.0159
ElecMinimize: Iter:  11  G: -1759.836166141380090  |grad|_K:  5.484e-08  alpha:  5.838e-01  linmin: -1.856e-05  t[s]:  45625.90
ElecMinimize: Converged (|Delta G|<4.068318e-07 for 2 iters).
Setting wave functions to eigenvectors of Hamiltonian

Electronic minimization # 9 changed total free energy by -1.369475e-05 at t[s]:  45642.86

---------------------- Fluid Minimization # 10 -----------------------
FluidMinimize: Iter:   0  G: -0.035929435297863  |grad|_K:  3.039e-05  alpha:  1.000e+00
FluidMinimize: Iter:   1  G: -0.035929686027043  |grad|_K:  2.981e-05  alpha:  1.416e-04  linmin: -1.567e-01  cgtest:  1.000e+00  t[s]:  45643.73
FluidMinimize: Encountered beta<0, resetting CG.
FluidMinimize: 	Predicted alpha/alphaT>3.000000, increasing alphaT to 4.248001e-04.
FluidMinimize: 	Predicted alpha/alphaT>3.000000, increasing alphaT to 1.274400e-03.
FluidMinimize: 	Predicted alpha/alphaT>3.000000, increasing alphaT to 3.823201e-03.
FluidMinimize: Iter:   2  G: -0.035936006852654  |grad|_K:  1.154e-05  alpha:  7.367e-03  linmin:  1.186e-03  cgtest: -1.146e-02  t[s]:  45645.03
FluidMinimize: Iter:   3  G: -0.035937018885450  |grad|_K:  1.114e-05  alpha:  7.894e-03  linmin:  1.241e-04  cgtest:  3.059e-03  t[s]:  45645.58
FluidMinimize: Iter:   4  G: -0.035937628163404  |grad|_K:  5.324e-06  alpha:  5.010e-03  linmin: -3.201e-04  cgtest:  1.793e-02  t[s]:  45646.14
FluidMinimize: 	Predicted alpha/alphaT>3.000000, increasing alphaT to 1.503036e-02.
FluidMinimize: Iter:   5  G: -0.035938806831387  |grad|_K:  3.101e-06  alpha:  4.287e-02  linmin: -1.660e-04  cgtest:  4.309e-03  t[s]:  45646.92
FluidMinimize: Iter:   6  G: -0.035939119271652  |grad|_K:  7.000e-06  alpha:  3.355e-02  linmin: -1.408e-05  cgtest: -1.630e-03  t[s]:  45647.49
FluidMinimize: Iter:   7  G: -0.035939481781577  |grad|_K:  6.640e-06  alpha:  7.476e-03  linmin: -3.043e-03  cgtest:  1.812e-02  t[s]:  45648.04
FluidMinimize: Iter:   8  G: -0.035939893584594  |grad|_K:  4.345e-06  alpha:  9.464e-03  linmin: -5.225e-04  cgtest: -3.967e-02  t[s]:  45648.60
FluidMinimize: Iter:   9  G: -0.035940413657102  |grad|_K:  3.886e-06  alpha:  2.803e-02  linmin: -2.664e-03  cgtest:  4.611e-02  t[s]:  45649.16
FluidMinimize: Iter:  10  G: -0.035940865562244  |grad|_K:  5.080e-06  alpha:  3.033e-02  linmin:  1.268e-05  cgtest: -2.556e-02  t[s]:  45649.72
FluidMinimize: Iter:  11  G: -0.035940974753839  |grad|_K:  3.312e-06  alpha:  4.280e-03  linmin: -2.101e-03  cgtest:  4.090e-02  t[s]:  45650.27
FluidMinimize: 	Predicted alpha/alphaT>3.000000, increasing alphaT to 1.284061e-02.
FluidMinimize: Iter:  12  G: -0.035941143244093  |grad|_K:  4.304e-06  alpha:  1.558e-02  linmin:  7.204e-05  cgtest: -3.016e-02  t[s]:  45651.07
FluidMinimize: Converged (|Delta G|<1.847091e-07 for 2 iters).

Fluid minimization # 10 changed total free energy by -1.170795e-05 at t[s]:  45651.38

-------------------- Electronic Minimization # 10 ---------------------
	FillingsUpdate:  mu: -0.173600000  nElectrons: 336.204537
ElecMinimize: Iter:   0  G: -1759.836039019255168  |grad|_K:  3.420e-06  alpha:  1.000e+00
	FillingsUpdate:  mu: -0.173600000  nElectrons: 336.182815
	SubspaceRotationAdjust: set factor to 0.0137
ElecMinimize: Iter:   1  G: -1759.836157904274842  |grad|_K:  9.445e-07  alpha:  2.130e-01  linmin: -1.960e-03  t[s]:  46222.34
	FillingsUpdate:  mu: -0.173600000  nElectrons: 336.182722
	SubspaceRotationAdjust: set factor to 0.0224
ElecMinimize: Iter:   2  G: -1759.836175949811604  |grad|_K:  4.625e-07  alpha:  4.240e-01  linmin: -6.244e-05  t[s]:  46626.53
	FillingsUpdate:  mu: -0.173600000  nElectrons: 336.182166
	SubspaceRotationAdjust: set factor to 0.0271
ElecMinimize: Iter:   3  G: -1759.836181772852569  |grad|_K:  3.458e-07  alpha:  5.724e-01  linmin:  7.025e-06  t[s]:  47021.71
	FillingsUpdate:  mu: -0.173600000  nElectrons: 336.181689
	SubspaceRotationAdjust: set factor to 0.0298
ElecMinimize: Iter:   4  G: -1759.836185218042829  |grad|_K:  2.584e-07  alpha:  6.058e-01  linmin: -2.065e-05  t[s]:  47418.36
	FillingsUpdate:  mu: -0.173600000  nElectrons: 336.182355
	SubspaceRotationAdjust: set factor to 0.0284
ElecMinimize: Iter:   5  G: -1759.836186840758046  |grad|_K:  1.946e-07  alpha:  5.110e-01  linmin: -1.625e-05  t[s]:  47816.41
	FillingsUpdate:  mu: -0.173600000  nElectrons: 336.181239
	SubspaceRotationAdjust: set factor to 0.0198
ElecMinimize: Iter:   6  G: -1759.836187321127454  |grad|_K:  1.676e-07  alpha:  2.666e-01  linmin:  8.424e-06  t[s]:  48216.18
	FillingsUpdate:  mu: -0.173600000  nElectrons: 336.181978
	SubspaceRotationAdjust: set factor to 0.0192
ElecMinimize: Iter:   7  G: -1759.836187718404517  |grad|_K:  9.033e-08  alpha:  2.970e-01  linmin: -1.027e-04  t[s]:  48613.83
	FillingsUpdate:  mu: -0.173600000  nElectrons: 336.182134
	SubspaceRotationAdjust: set factor to 0.0242
ElecMinimize: Iter:   8  G: -1759.836187929324524  |grad|_K:  6.832e-08  alpha:  5.405e-01  linmin: -5.068e-04  t[s]:  49014.37
	FillingsUpdate:  mu: -0.173600000  nElectrons: 336.181762
	SubspaceRotationAdjust: set factor to 0.0207
ElecMinimize: Iter:   9  G: -1759.836188036081921  |grad|_K:  7.036e-08  alpha:  4.779e-01  linmin: -2.929e-05  t[s]:  49416.49
	FillingsUpdate:  mu: -0.173600000  nElectrons: 336.182151
	SubspaceRotationAdjust: set factor to 0.0175
ElecMinimize: Iter:  10  G: -1759.836188119880717  |grad|_K:  5.489e-08  alpha:  3.546e-01  linmin: -1.353e-04  t[s]:  49816.19
ElecMinimize: Converged (|Delta G|<1.847091e-07 for 2 iters).
Setting wave functions to eigenvectors of Hamiltonian

Electronic minimization # 10 changed total free energy by -1.027056e-05 at t[s]:  49834.43

Fluid<-->Electron self-consistency loop not yet converged to 1.000000e-05 hartrees after 10 minimization pairs at t[s]:  49834.43.

# Ionic positions in lattice coordinates:
ion C   0.500000000000000   0.500000000000000   0.314181717468549 1
ion O   0.711856675241361   0.500000000000000   0.320519931990623 1
ion O   0.288143324758639   0.500000000000000   0.320519931990623 1
ion Pt   0.000000000000000   0.000000000000000  -0.155941670000000 0
ion Pt   0.500000000000000   0.500000000000000  -0.155941670000000 0
ion Pt   0.000000000000000   0.500000000000000  -0.155941670000000 0
ion Pt   0.500000000000000   0.000000000000000  -0.155941670000000 0
ion Pt   0.750000000000000   0.250000000000000  -0.077970830000000 0
ion Pt   0.250000000000000   0.750000000000000  -0.077970830000000 0
ion Pt   0.250000000000000   0.250000000000000  -0.077970830000000 0
ion Pt   0.750000000000000   0.750000000000000  -0.077970830000000 0
ion Pt   0.500000000000000   0.000000000000000   0.003235812409402 1
ion Pt   0.000000000000000   0.000000000000000   0.003247307710286 1
ion Pt   0.000000000000000   0.500000000000000   0.003478939809138 1
ion Pt   0.500000000000000   0.500000000000000   0.002623971896652 1
ion Pt   0.750130049682005   0.249008097577898   0.091650606563814 1
ion Pt   0.249869950317995   0.750991902422102   0.091650606563814 1
ion Pt   0.249869950317995   0.249008097577898   0.091650606563814 1
ion Pt   0.750130049682005   0.750991902422102   0.091650606563814 1
ion Pt   0.000000000000000   0.000000000000000   0.162799280187547 1
ion Pt   0.000000000000000   0.500000000000000   0.161172478557374 1
ion Pt   0.500000000000000   0.000000000000000   0.162682025557795 1
ion Pt   0.500000000000000   0.500000000000000   0.159607827559279 1


# Forces in Lattice coordinates:
force C   0.000000000000000   0.000000000000000   0.037738958937724 1
force O   0.010450371409945  -0.000000000000000   0.155218303624065 1
force O  -0.010450371409938  -0.000000000000000   0.155218303624066 1
force Pt   0.000000000000000   0.000000000000000   0.133736802917751 0
force Pt   0.000000000000000   0.000000000000000   0.097255152995456 0
force Pt   0.000000000000000   0.000000000000000   0.179035127961994 0
force Pt   0.000000000000000   0.000000000000000   0.134086418146429 0
force Pt   0.002190240483780  -0.005304107058822  -0.514071857330734 0
force Pt  -0.002190240483780   0.005304107058822  -0.514071857331644 0
force Pt  -0.002190240483780  -0.005304107058822  -0.514071857330735 0
force Pt   0.002190240483780   0.005304107058822  -0.514071857331644 0
force Pt   0.000000000000000   0.000000000000000   0.115934333736224 1
force Pt   0.000000000000000   0.000000000000000   0.116946786707414 1
force Pt   0.000000000000000   0.000000000000000   0.070375062685464 1
force Pt   0.000000000000000   0.000000000000000   0.019706319470291 1
force Pt   0.002647933719545  -0.015443948256546   0.078215678765550 1
force Pt  -0.002647933719545   0.015443948256546   0.078215678765550 1
force Pt  -0.002647933719545  -0.015443948256544   0.078215678765322 1
force Pt   0.002647933719545   0.015443948256546   0.078215678765550 1
force Pt   0.000000000000000   0.000000000000000   0.112477952743181 1
force Pt   0.000000000000000   0.000000000000000   0.094460751819446 1
force Pt   0.000000000000000   0.000000000000000   0.117771862672064 1
force Pt   0.000000000000000   0.000000000000000   0.172943461975664 1

# Energy components:
   A_diel =       -0.0375152668321351
   Eewald =    12956.9865292088979913
       EH =    14577.7148851323945564
     Eloc =   -29674.9369735566724557
      Enl =      -15.5615990823472963
      Exc =     -575.1050453365849080
 Exc_core =      324.9917410780023488
       KE =      588.0000713323853461
  MuShift =       -0.0062244675046646
-------------------------------------
     Etot =    -1817.9541309582605209
       TS =        0.2432786106187232
-------------------------------------
        F =    -1818.1974095688792659
      muN =      -58.3612214489985917
-------------------------------------
        G =    -1759.8361881198807168

IonicMinimize: Iter:   0  G: -1759.836188119880717  |grad|_K:  2.003e-03  t[s]:  49882.24
IonicMinimize: None of the convergence criteria satisfied after 0 iterations.

#--- Lowdin population analysis ---
# oxidation-state C +0.727
# oxidation-state O -0.217 -0.217
# oxidation-state Pt +0.056 +0.055 +0.057 +0.055 -0.051 -0.051 -0.051 -0.051 +0.005 +0.005 +0.008 +0.002 -0.049 -0.049 -0.049 -0.049 +0.050 +0.040 +0.050 -0.030


Dumping '110_5-Solvated.ionpos' ... done
Dumping '110_5-Solvated.n' ... done
Dumping '110_5-Solvated.eigStats' ... 
	eMin: -2.126946 at state 0 ( [ +0.000000 +0.000000 +0.000000 ] spin 0 )
	HOMO: -0.173579 at state 0 ( [ +0.000000 +0.000000 +0.000000 ] spin 0 )
	mu  : -0.173600
	LUMO: -0.173332 at state 0 ( [ +0.000000 +0.000000 +0.000000 ] spin 0 )
	eMax: +0.359871 at state 8 ( [ +0.500000 +0.500000 +0.000000 ] spin 0 )
	HOMO-LUMO gap: +0.000247
	Optical gap  : +0.000247 at state 0 ( [ +0.000000 +0.000000 +0.000000 ] spin 0 )
Dumping '110_5-Solvated.Ecomponents' ... done
End date and time: Tue Apr 30 10:59:04 2019  (Duration: 0-13:52:19.89)
Done!
