--------------------------------------------------------------------------
Initialization of PSM library failed.

  Error: PSM is in the finalized state
--------------------------------------------------------------------------
--------------------------------------------------------------------------
The OpenFabrics (openib) BTL failed to initialize while trying to
allocate some locked memory.  This typically can indicate that the
memlock limits are set too low.  For most HPC installations, the
memlock limits should be set to "unlimited".  The failure occured
here:

  Local host:    node2004
  OMPI source:   btl_openib.c:753
  Function:      ompi_free_list_init_ex_new()
  Device:        qib0
  Memlock limit: 65536

You may need to consult with your system administrator to get this
problem fixed.  This FAQ entry on the Open MPI web site may also be
helpful:

    http://www.open-mpi.org/faq/?category=openfabrics#ib-locked-pages
--------------------------------------------------------------------------

*************** JDFTx 1.4.2 (git hash 74b6e54) ***************

Start date and time: Wed Apr 24 10:05:23 2019
Executable /home/jfm343/JDFTXDIR/build/jdftx with command-line: -i Vacuum.in
Running on hosts (process indices):  node2004.physics.cornell.edu (0)
Divided in process groups (process indices):  0 (0)
Resource initialization completed at t[s]:      0.00
Run totals: 1 processes, 12 threads, 0 GPUs


Input parsed successfully to the following command list (including defaults):

basis kpoint-dependent
coords-type Lattice
core-overlap-check vector
coulomb-interaction Slab 001
coulomb-truncation-embed 0 0 0
davidson-band-ratio 1.1
dump End State IonicPositions ElecDensity EigStats Ecomponents
dump-name 111_1-Vacuum.$VAR
elec-cutoff 20 100
elec-eigen-algo Davidson
elec-ex-corr gga-PBEsol
elec-smearing Fermi 0.01
electronic-minimize  \
	dirUpdateScheme      FletcherReeves \
	linminMethod         DirUpdateRecommended \
	nIterations          100 \
	history              15 \
	knormThreshold       0 \
	energyDiffThreshold  1e-08 \
	nEnergyDiff          2 \
	alphaTstart          1 \
	alphaTmin            1e-10 \
	updateTestStepSize   yes \
	alphaTreduceFactor   0.1 \
	alphaTincreaseFactor 3 \
	nAlphaAdjustMax      3 \
	wolfeEnergy          0.0001 \
	wolfeGradient        0.9 \
	fdTest               no
electronic-scf  \
	nIterations	50 \
	energyDiffThreshold	1e-08 \
	residualThreshold	1e-07 \
	mixFraction	0.5 \
	qMetric	0.8 \
	history	10 \
	nEigSteps	2 \
	eigDiffThreshold	1e-08 \
	mixedVariable	Density \
	qKerker	0.8 \
	qKappa	-1 \
	verbose	no \
	mixFractionMag	1.5
exchange-regularization WignerSeitzTruncated
fluid None
fluid-ex-corr lda-TF lda-PZ
fluid-gummel-loop 10 1.000000e-05
fluid-minimize  \
	dirUpdateScheme      PolakRibiere \
	linminMethod         DirUpdateRecommended \
	nIterations          100 \
	history              15 \
	knormThreshold       0 \
	energyDiffThreshold  0 \
	nEnergyDiff          2 \
	alphaTstart          1 \
	alphaTmin            1e-10 \
	updateTestStepSize   yes \
	alphaTreduceFactor   0.1 \
	alphaTincreaseFactor 3 \
	nAlphaAdjustMax      3 \
	wolfeEnergy          0.0001 \
	wolfeGradient        0.9 \
	fdTest               no
fluid-solvent H2O 55.338 ScalarEOS \
	epsBulk 78.4 \
	pMol 0.92466 \
	epsInf 1.77 \
	Pvap 1.06736e-10 \
	sigmaBulk 4.62e-05 \
	Rvdw 2.61727 \
	Res 1.42 \
	tauNuc 343133 \
	omegaEl 0.55124 \
	gammaEl 0.257245
forces-output-coords Positions
ion O   0.406000000000000   0.226000000000000   0.303000000000000 1
ion O   0.775000000000000   0.676000000000000   0.303000000000000 1
ion C   0.500000000000000   0.500000000000000   0.281000000000000 1
ion H   0.363000000000000   0.574000000000000   0.297000000000000 1
ion H   0.217000000000000   0.112000000000000   0.287000000000000 1
ion H   0.831000000000000   0.862000000000000   0.287000000000000 1
ion Pt   0.333300000000000   0.166700000000000  -0.200100000000000 0
ion Pt   0.333300000000000   0.666700000000000  -0.200100000000000 0
ion Pt   0.833300000000000   0.166700000000000  -0.200100000000000 0
ion Pt   0.833300000000000   0.666700000000000  -0.200100000000000 0
ion Pt   0.000000000000000   0.000000000000000  -0.100000000000000 0
ion Pt   0.000000000000000   0.500000000000000  -0.100000000000000 0
ion Pt   0.500000000000000   0.000000000000000  -0.100000000000000 0
ion Pt   0.500000000000000   0.500000000000000  -0.100000000000000 0
ion Pt   0.166700000000000   0.333300000000000   0.000000000000000 1
ion Pt   0.166700000000000   0.833300000000000   0.000000000000000 1
ion Pt   0.666700000000000   0.333300000000000   0.000000000000000 1
ion Pt   0.666700000000000   0.833300000000000   0.000000000000000 1
ion Pt   0.333300000000000   0.166700000000000   0.100000000000000 1
ion Pt   0.333300000000000   0.666700000000000   0.100000000000000 1
ion Pt   0.833300000000000   0.166700000000000   0.100000000000000 1
ion Pt   0.833300000000000   0.666700000000000   0.100000000000000 1
ion Pt   0.000000000000000   0.000000000000000   0.200100000000000 1
ion Pt   0.000000000000000   0.500000000000000   0.200100000000000 1
ion Pt   0.500000000000000   0.000000000000000   0.200100000000000 1
ion Pt   0.500000000000000   0.500000000000000   0.200100000000000 1
ion-species GBRV/$ID_pbesol.uspp
ion-width 0
ionic-minimize  \
	dirUpdateScheme      L-BFGS \
	linminMethod         DirUpdateRecommended \
	nIterations          5 \
	history              15 \
	knormThreshold       0.0001 \
	energyDiffThreshold  1e-06 \
	nEnergyDiff          2 \
	alphaTstart          1 \
	alphaTmin            1e-10 \
	updateTestStepSize   yes \
	alphaTreduceFactor   0.1 \
	alphaTincreaseFactor 3 \
	nAlphaAdjustMax      3 \
	wolfeEnergy          0.0001 \
	wolfeGradient        0.9 \
	fdTest               no
kpoint   0.000000000000   0.000000000000   0.000000000000  1.00000000000000
kpoint-folding 6 6 1 
latt-move-scale 1 1 1
latt-scale 1 1 1 
lattice Hexagonal 10.4793 42.7686
lattice-minimize  \
	dirUpdateScheme      L-BFGS \
	linminMethod         DirUpdateRecommended \
	nIterations          0 \
	history              15 \
	knormThreshold       0 \
	energyDiffThreshold  1e-06 \
	nEnergyDiff          2 \
	alphaTstart          1 \
	alphaTmin            1e-10 \
	updateTestStepSize   yes \
	alphaTreduceFactor   0.1 \
	alphaTincreaseFactor 3 \
	nAlphaAdjustMax      3 \
	wolfeEnergy          0.0001 \
	wolfeGradient        0.9 \
	fdTest               no
lcao-params -1 1e-06 0.01
pcm-variant GLSSA13
spintype no-spin
subspace-rotation-factor 1 yes
symmetries automatic
symmetry-threshold 0.0001



---------- Setting up symmetries ----------

Found 24 point-group symmetries of the bravais lattice
Found 1 space-group symmetries with basis
Applied RMS atom displacement 0 bohrs to make symmetries exact.

---------- Initializing the Grid ----------
R = 
[    10.4793   -5.23966          0  ]
[          0    9.07536          0  ]
[          0          0    42.7686  ]
unit cell volume = 4067.45
G =
[   0.599579   0.346167         -0  ]
[          0   0.692335          0  ]
[          0         -0   0.146911  ]
Minimum fftbox size, Smin = [  48  48  196  ]
Chosen fftbox size, S = [  48  48  196  ]

---------- Initializing tighter grid for wavefunction operations ----------
R = 
[    10.4793   -5.23966          0  ]
[          0    9.07536          0  ]
[          0          0    42.7686  ]
unit cell volume = 4067.45
G =
[   0.599579   0.346167         -0  ]
[          0   0.692335          0  ]
[          0         -0   0.146911  ]
Minimum fftbox size, Smin = [  44  44  176  ]
Chosen fftbox size, S = [  48  48  180  ]

---------- Exchange Correlation functional ----------
Initalized PBEsol GGA exchange.
Initalized PBEsol GGA correlation.

---------- Setting up pseudopotentials ----------
Width of ionic core gaussian charges (only for fluid interactions / plotting) set to 0

Reading pseudopotential file '/home/jfm343/JDFTXDIR/build/pseudopotentials/GBRV/o_pbesol.uspp':
  Title: O.  Created by USPP 7.3.6 on 3-2-2014
  Reference state energy: -15.849885.  6 valence electrons in orbitals:
    |200>  occupation: 2  eigenvalue: -0.873214
    |210>  occupation: 4  eigenvalue: -0.330058
  lMax: 2  lLocal: 2  QijEcut: 6
  5 projectors sampled on a log grid with 511 points:
    l: 0  eig: -0.873214  rCut: 1.25
    l: 0  eig: 0.000000  rCut: 1.25
    l: 1  eig: -0.330058  rCut: 1.25
    l: 1  eig: 0.000000  rCut: 1.25
    l: 2  eig: 1.000000  rCut: 1.25
  Partial core density with radius 0.7
  Transforming core density to a uniform radial grid of dG=0.02 with 1615 points.
  Transforming local potential to a uniform radial grid of dG=0.02 with 1615 points.
  Transforming nonlocal projectors to a uniform radial grid of dG=0.02 with 432 points.
  Transforming density augmentations to a uniform radial grid of dG=0.02 with 1615 points.
  Transforming atomic orbitals to a uniform radial grid of dG=0.02 with 432 points.
  Core radius for overlap checks: 1.25 bohrs.

Reading pseudopotential file '/home/jfm343/JDFTXDIR/build/pseudopotentials/GBRV/c_pbesol.uspp':
  Title: C.  Created by USPP 7.3.6 on 3-2-2014
  Reference state energy: -5.383511.  4 valence electrons in orbitals:
    |200>  occupation: 2  eigenvalue: -0.501126
    |210>  occupation: 2  eigenvalue: -0.192448
  lMax: 1  lLocal: 2  QijEcut: 5
  4 projectors sampled on a log grid with 503 points:
    l: 0  eig: -0.501126  rCut: 1.3
    l: 0  eig: 0.000000  rCut: 1.3
    l: 1  eig: -0.192448  rCut: 1.3
    l: 1  eig: 0.000000  rCut: 1.3
  Partial core density with radius 1.1
  Transforming core density to a uniform radial grid of dG=0.02 with 1615 points.
  Transforming local potential to a uniform radial grid of dG=0.02 with 1615 points.
  Transforming nonlocal projectors to a uniform radial grid of dG=0.02 with 432 points.
  Transforming density augmentations to a uniform radial grid of dG=0.02 with 1615 points.
  Transforming atomic orbitals to a uniform radial grid of dG=0.02 with 432 points.
  Core radius for overlap checks: 1.30 bohrs.

Reading pseudopotential file '/home/jfm343/JDFTXDIR/build/pseudopotentials/GBRV/h_pbesol.uspp':
  Title: H.  Created by USPP 7.3.6 on 22-9-15
  Reference state energy: -0.449841.  1 valence electrons in orbitals:
    |100>  occupation: 1  eigenvalue: -0.232690
  lMax: 0  lLocal: 1  QijEcut: 6
  2 projectors sampled on a log grid with 395 points:
    l: 0  eig: -0.232690  rCut: 1.2
    l: 0  eig: 1.000000  rCut: 1.2
  Transforming local potential to a uniform radial grid of dG=0.02 with 1615 points.
  Transforming nonlocal projectors to a uniform radial grid of dG=0.02 with 432 points.
  Transforming density augmentations to a uniform radial grid of dG=0.02 with 1615 points.
  Transforming atomic orbitals to a uniform radial grid of dG=0.02 with 432 points.
  Core radius for overlap checks: 1.20 bohrs.

Reading pseudopotential file '/home/jfm343/JDFTXDIR/build/pseudopotentials/GBRV/pt_pbesol.uspp':
  Title: Pt.  Created by USPP 7.3.6 on 22-9-15
  Reference state energy: -104.899005.  16 valence electrons in orbitals:
    |510>  occupation: 6  eigenvalue: -2.158847
    |520>  occupation: 9.5  eigenvalue: -0.336311
    |600>  occupation: 0  eigenvalue: -0.320324
    |610>  occupation: 0  eigenvalue: -0.119800
  lMax: 2  lLocal: 3  QijEcut: 5.5
  6 projectors sampled on a log grid with 745 points:
    l: 0  eig: -0.320324  rCut: 2.45
    l: 0  eig: 1.500000  rCut: 2.45
    l: 1  eig: -2.158847  rCut: 1.6
    l: 1  eig: -0.119800  rCut: 1.6
    l: 2  eig: -0.500000  rCut: 1.6
    l: 2  eig: -0.336311  rCut: 1.6
  Partial core density with radius 1.1
  Transforming core density to a uniform radial grid of dG=0.02 with 1615 points.
  Transforming local potential to a uniform radial grid of dG=0.02 with 1615 points.
  Transforming nonlocal projectors to a uniform radial grid of dG=0.02 with 432 points.
  Transforming density augmentations to a uniform radial grid of dG=0.02 with 1615 points.
  Transforming atomic orbitals to a uniform radial grid of dG=0.02 with 432 points.
  Core radius for overlap checks: 2.45 bohrs.

Initialized 4 species with 26 total atoms.

Folded 1 k-points by 6x6x1 to 36 k-points.

---------- Setting up k-points, bands, fillings ----------
Adding inversion symmetry to k-mesh for non-inversion-symmetric unit cell.
Reduced to 20 k-points under symmetry. 
Computing the number of bands and number of electrons
Calculating initial fillings.
nElectrons: 339.000000   nBands: 255   nStates: 20

----- Setting up reduced wavefunction bases (one per k-point) -----
average nbasis = 17378.583 , ideal nbasis = 17376.449

---------- Setting up coulomb interaction ----------
Setting up double-sized grid for truncated Coulomb potentials:
R = 
[    10.4793   -5.23966          0  ]
[          0    9.07536          0  ]
[          0          0    85.5372  ]
unit cell volume = 8134.9
G =
[   0.599579   0.346167         -0  ]
[          0   0.692335          0  ]
[          0         -0  0.0734556  ]
Chosen fftbox size, S = [  48  48  392  ]
Integer grid location selected as the embedding center:
   Grid: [  0  0  0  ]
   Lattice: [  0  0  0  ]
   Cartesian: [  0  0  0  ]
Constructing Wigner-Seitz cell: 8 faces (6 quadrilaterals, 2 hexagons)
Range-separation parameter for embedded mesh potentials due to point charges: 0.589462 bohrs.
Initialized slab truncation along lattice direction 001

---------- Setting up 2D ewald sum ----------
Optimum gaussian width for ewald sums = 5.817695 bohr.
Real space sums over 289 unit cells with max indices [  8  8  0  ]
Reciprocal space sums over 81 terms with max indices [  4  4  0  ]

---------- Allocating electronic variables ----------
