--------------------------------------------------------------------------
Initialization of PSM library failed.

  Error: PSM is in the finalized state
--------------------------------------------------------------------------
--------------------------------------------------------------------------
The OpenFabrics (openib) BTL failed to initialize while trying to
allocate some locked memory.  This typically can indicate that the
memlock limits are set too low.  For most HPC installations, the
memlock limits should be set to "unlimited".  The failure occured
here:

  Local host:    node2012
  OMPI source:   btl_openib.c:753
  Function:      ompi_free_list_init_ex_new()
  Device:        qib0
  Memlock limit: 65536

You may need to consult with your system administrator to get this
problem fixed.  This FAQ entry on the Open MPI web site may also be
helpful:

    http://www.open-mpi.org/faq/?category=openfabrics#ib-locked-pages
--------------------------------------------------------------------------

*************** JDFTx 1.4.2 (git hash 74b6e54) ***************

Start date and time: Thu May 30 13:56:17 2019
Executable /home/jfm343/JDFTXDIR/build/jdftx with command-line: -i Vacuum.in
Running on hosts (process indices):  node2012.physics.cornell.edu (0)
Divided in process groups (process indices):  0 (0)
Resource initialization completed at t[s]:      0.00
Run totals: 1 processes, 12 threads, 0 GPUs


Input parsed successfully to the following command list (including defaults):

basis kpoint-dependent
coords-type Lattice
core-overlap-check vector
coulomb-interaction Periodic
davidson-band-ratio 1.1
dump End State IonicPositions ElecDensity EigStats Ecomponents
dump-name 100_1-Vacuum.$VAR
elec-cutoff 20 100
elec-eigen-algo Davidson
elec-ex-corr gga-PBEsol
elec-smearing Fermi 0.01
electronic-minimize  \
	dirUpdateScheme      FletcherReeves \
	linminMethod         DirUpdateRecommended \
	nIterations          200 \
	history              15 \
	knormThreshold       0 \
	energyDiffThreshold  1e-08 \
	nEnergyDiff          2 \
	alphaTstart          1 \
	alphaTmin            1e-10 \
	updateTestStepSize   yes \
	alphaTreduceFactor   0.1 \
	alphaTincreaseFactor 3 \
	nAlphaAdjustMax      3 \
	wolfeEnergy          0.0001 \
	wolfeGradient        0.9 \
	fdTest               no
exchange-regularization WignerSeitzTruncated
fluid None
fluid-ex-corr lda-TF lda-PZ
fluid-gummel-loop 10 1.000000e-05
fluid-minimize  \
	dirUpdateScheme      PolakRibiere \
	linminMethod         DirUpdateRecommended \
	nIterations          100 \
	history              15 \
	knormThreshold       0 \
	energyDiffThreshold  0 \
	nEnergyDiff          2 \
	alphaTstart          1 \
	alphaTmin            1e-10 \
	updateTestStepSize   yes \
	alphaTreduceFactor   0.1 \
	alphaTincreaseFactor 3 \
	nAlphaAdjustMax      3 \
	wolfeEnergy          0.0001 \
	wolfeGradient        0.9 \
	fdTest               no
fluid-solvent H2O 55.338 ScalarEOS \
	epsBulk 78.4 \
	pMol 0.92466 \
	epsInf 1.77 \
	Pvap 1.06736e-10 \
	sigmaBulk 4.62e-05 \
	Rvdw 2.61727 \
	Res 1.42 \
	tauNuc 343133 \
	omegaEl 0.55124 \
	gammaEl 0.257245
forces-output-coords Positions
ion O   0.667500000000000   0.480240000000000   0.321490000000000 1
ion O   0.430990000000000   0.716750000000000   0.321490000000000 1
ion C   0.500000000000000   0.500000000000000   0.292900000000000 1
ion H   0.425200000000000   0.350400000000000   0.314130000000000 1
ion H   0.710030000000000   0.329220000000000   0.300500000000000 1
ion H   0.316140000000000   0.723120000000000   0.300500000000000 1
ion Pt   0.000000000000000   0.000000000000000  -0.166660000000000 0
ion Pt   0.000000000000000   0.500000000000000  -0.166660000000000 0
ion Pt   0.500000000000000   0.000000000000000  -0.166660000000000 0
ion Pt   0.500000000000000   0.500000000000000  -0.166660000000000 0
ion Pt   0.250000000000000   0.250000000000000  -0.083330000000000 0
ion Pt   0.250000000000000   0.750000000000000  -0.083330000000000 0
ion Pt   0.750000000000000   0.250000000000000  -0.083330000000000 0
ion Pt   0.750000000000000   0.750000000000000  -0.083330000000000 0
ion Pt   0.000000000000000   0.000000000000000   0.000000000000000 1
ion Pt   0.000000000000000   0.500000000000000   0.000000000000000 1
ion Pt   0.500000000000000   0.000000000000000   0.000000000000000 1
ion Pt   0.500000000000000   0.500000000000000   0.000000000000000 1
ion Pt   0.250000000000000   0.250000000000000   0.083330000000000 1
ion Pt   0.250000000000000   0.750000000000000   0.083330000000000 1
ion Pt   0.750000000000000   0.250000000000000   0.083330000000000 1
ion Pt   0.750000000000000   0.750000000000000   0.083330000000000 1
ion Pt   0.000000000000000   0.000000000000000   0.166660000000000 1
ion Pt   0.000000000000000   0.500000000000000   0.166660000000000 1
ion Pt   0.500000000000000   0.000000000000000   0.166660000000000 1
ion Pt   0.500000000000000   0.500000000000000   0.166660000000000 1
ion-species GBRV/$ID_pbesol.uspp
ion-width 0
ionic-minimize  \
	dirUpdateScheme      L-BFGS \
	linminMethod         DirUpdateRecommended \
	nIterations          8 \
	history              15 \
	knormThreshold       0.0001 \
	energyDiffThreshold  1e-06 \
	nEnergyDiff          2 \
	alphaTstart          1 \
	alphaTmin            1e-10 \
	updateTestStepSize   yes \
	alphaTreduceFactor   0.1 \
	alphaTincreaseFactor 3 \
	nAlphaAdjustMax      3 \
	wolfeEnergy          0.0001 \
	wolfeGradient        0.9 \
	fdTest               no
kpoint   0.000000000000   0.000000000000   0.000000000000  1.00000000000000
kpoint-folding 4 4 1 
latt-move-scale 1 1 1
latt-scale 1 1 1 
lattice Triclinic 15.0309 10.6282 31.8847 90 90 90
lattice-minimize  \
	dirUpdateScheme      L-BFGS \
	linminMethod         DirUpdateRecommended \
	nIterations          0 \
	history              15 \
	knormThreshold       0 \
	energyDiffThreshold  1e-06 \
	nEnergyDiff          2 \
	alphaTstart          1 \
	alphaTmin            1e-10 \
	updateTestStepSize   yes \
	alphaTreduceFactor   0.1 \
	alphaTincreaseFactor 3 \
	nAlphaAdjustMax      3 \
	wolfeEnergy          0.0001 \
	wolfeGradient        0.9 \
	fdTest               no
lcao-params -1 1e-06 0.01
pcm-variant GLSSA13
spintype no-spin
subspace-rotation-factor 1 yes
symmetries automatic
symmetry-threshold 0.0001



---------- Setting up symmetries ----------

Found 8 point-group symmetries of the bravais lattice
Found 1 space-group symmetries with basis
Applied RMS atom displacement 0 bohrs to make symmetries exact.

---------- Initializing the Grid ----------
R = 
[    15.0309          0          0  ]
[          0    10.6282          0  ]
[          0          0    31.8847  ]
unit cell volume = 5093.63
G =
[   0.418018          0          0  ]
[          0   0.591179          0  ]
[          0          0    0.19706  ]
Minimum fftbox size, Smin = [  68  48  144  ]
Chosen fftbox size, S = [  70  48  144  ]

---------- Initializing tighter grid for wavefunction operations ----------
R = 
[    15.0309          0          0  ]
[          0    10.6282          0  ]
[          0          0    31.8847  ]
unit cell volume = 5093.63
G =
[   0.418018          0          0  ]
[          0   0.591179          0  ]
[          0          0    0.19706  ]
Minimum fftbox size, Smin = [  64  44  132  ]
Chosen fftbox size, S = [  64  48  140  ]

---------- Exchange Correlation functional ----------
Initalized PBEsol GGA exchange.
Initalized PBEsol GGA correlation.

---------- Setting up pseudopotentials ----------
Width of ionic core gaussian charges (only for fluid interactions / plotting) set to 0

Reading pseudopotential file '/home/jfm343/JDFTXDIR/build/pseudopotentials/GBRV/o_pbesol.uspp':
  Title: O.  Created by USPP 7.3.6 on 3-2-2014
  Reference state energy: -15.849885.  6 valence electrons in orbitals:
    |200>  occupation: 2  eigenvalue: -0.873214
    |210>  occupation: 4  eigenvalue: -0.330058
  lMax: 2  lLocal: 2  QijEcut: 6
  5 projectors sampled on a log grid with 511 points:
    l: 0  eig: -0.873214  rCut: 1.25
    l: 0  eig: 0.000000  rCut: 1.25
    l: 1  eig: -0.330058  rCut: 1.25
    l: 1  eig: 0.000000  rCut: 1.25
    l: 2  eig: 1.000000  rCut: 1.25
  Partial core density with radius 0.7
  Transforming core density to a uniform radial grid of dG=0.02 with 1247 points.
  Transforming local potential to a uniform radial grid of dG=0.02 with 1247 points.
  Transforming nonlocal projectors to a uniform radial grid of dG=0.02 with 432 points.
  Transforming density augmentations to a uniform radial grid of dG=0.02 with 1247 points.
  Transforming atomic orbitals to a uniform radial grid of dG=0.02 with 432 points.
  Core radius for overlap checks: 1.25 bohrs.

Reading pseudopotential file '/home/jfm343/JDFTXDIR/build/pseudopotentials/GBRV/c_pbesol.uspp':
  Title: C.  Created by USPP 7.3.6 on 3-2-2014
  Reference state energy: -5.383511.  4 valence electrons in orbitals:
    |200>  occupation: 2  eigenvalue: -0.501126
    |210>  occupation: 2  eigenvalue: -0.192448
  lMax: 1  lLocal: 2  QijEcut: 5
  4 projectors sampled on a log grid with 503 points:
    l: 0  eig: -0.501126  rCut: 1.3
    l: 0  eig: 0.000000  rCut: 1.3
    l: 1  eig: -0.192448  rCut: 1.3
    l: 1  eig: 0.000000  rCut: 1.3
  Partial core density with radius 1.1
  Transforming core density to a uniform radial grid of dG=0.02 with 1247 points.
  Transforming local potential to a uniform radial grid of dG=0.02 with 1247 points.
  Transforming nonlocal projectors to a uniform radial grid of dG=0.02 with 432 points.
  Transforming density augmentations to a uniform radial grid of dG=0.02 with 1247 points.
  Transforming atomic orbitals to a uniform radial grid of dG=0.02 with 432 points.
  Core radius for overlap checks: 1.30 bohrs.

Reading pseudopotential file '/home/jfm343/JDFTXDIR/build/pseudopotentials/GBRV/h_pbesol.uspp':
  Title: H.  Created by USPP 7.3.6 on 22-9-15
  Reference state energy: -0.449841.  1 valence electrons in orbitals:
    |100>  occupation: 1  eigenvalue: -0.232690
  lMax: 0  lLocal: 1  QijEcut: 6
  2 projectors sampled on a log grid with 395 points:
    l: 0  eig: -0.232690  rCut: 1.2
    l: 0  eig: 1.000000  rCut: 1.2
  Transforming local potential to a uniform radial grid of dG=0.02 with 1247 points.
  Transforming nonlocal projectors to a uniform radial grid of dG=0.02 with 432 points.
  Transforming density augmentations to a uniform radial grid of dG=0.02 with 1247 points.
  Transforming atomic orbitals to a uniform radial grid of dG=0.02 with 432 points.
  Core radius for overlap checks: 1.20 bohrs.

Reading pseudopotential file '/home/jfm343/JDFTXDIR/build/pseudopotentials/GBRV/pt_pbesol.uspp':
  Title: Pt.  Created by USPP 7.3.6 on 22-9-15
  Reference state energy: -104.899005.  16 valence electrons in orbitals:
    |510>  occupation: 6  eigenvalue: -2.158847
    |520>  occupation: 9.5  eigenvalue: -0.336311
    |600>  occupation: 0  eigenvalue: -0.320324
    |610>  occupation: 0  eigenvalue: -0.119800
  lMax: 2  lLocal: 3  QijEcut: 5.5
  6 projectors sampled on a log grid with 745 points:
    l: 0  eig: -0.320324  rCut: 2.45
    l: 0  eig: 1.500000  rCut: 2.45
    l: 1  eig: -2.158847  rCut: 1.6
    l: 1  eig: -0.119800  rCut: 1.6
    l: 2  eig: -0.500000  rCut: 1.6
    l: 2  eig: -0.336311  rCut: 1.6
  Partial core density with radius 1.1
  Transforming core density to a uniform radial grid of dG=0.02 with 1247 points.
  Transforming local potential to a uniform radial grid of dG=0.02 with 1247 points.
  Transforming nonlocal projectors to a uniform radial grid of dG=0.02 with 432 points.
  Transforming density augmentations to a uniform radial grid of dG=0.02 with 1247 points.
  Transforming atomic orbitals to a uniform radial grid of dG=0.02 with 432 points.
  Core radius for overlap checks: 2.45 bohrs.

Initialized 4 species with 26 total atoms.

Folded 1 k-points by 4x4x1 to 16 k-points.

---------- Setting up k-points, bands, fillings ----------
Adding inversion symmetry to k-mesh for non-inversion-symmetric unit cell.
Reduced to 10 k-points under symmetry. 
Computing the number of bands and number of electrons
Calculating initial fillings.
nElectrons: 339.000000   nBands: 255   nStates: 10

----- Setting up reduced wavefunction bases (one per k-point) -----
average nbasis = 21760.562 , ideal nbasis = 21760.388

---------- Setting up ewald sum ----------
Optimum gaussian width for ewald sums = 3.988018 bohr.
Real space sum over 693 unit cells with max indices [  4  5  3  ]
Reciprocal space sum over 5655 terms with max indices [  7  6  14  ]

---------- Allocating electronic variables ----------
Initializing wave functions:  linear combination of atomic orbitals
O pseudo-atom occupations:   s ( 2 )  p ( 4 )
C pseudo-atom occupations:   s ( 2 )  p ( 2 )
H pseudo-atom occupations:   s ( 1 )
Pt pseudo-atom occupations:   s ( 0 )  p ( 6 0 )  d ( 10 )
	FillingsUpdate:  mu: -0.262578681  nElectrons: 339.000000
LCAOMinimize: Iter:   0  F: -1809.3086483786903500  |grad|_K:  2.106e-02  alpha:  1.000e+00
LCAOMinimize: 	Step increased F by 2.567038e+01, reducing alpha to 2.176592e-02.
	FillingsUpdate:  mu: -0.185791711  nElectrons: 339.000000
LCAOMinimize: Iter:   1  F: -1814.3007109427690011  |grad|_K:  1.263e-02  alpha:  2.177e-02  linmin: -3.082e-01  cgtest:  1.006e+00  t[s]:    478.87
LCAOMinimize: Encountered beta<0, resetting CG.
	FillingsUpdate:  mu: +0.105673314  nElectrons: 339.000000
LCAOMinimize: Iter:   2  F: -1817.3262562205484301  |grad|_K:  5.214e-03  alpha:  5.768e-02  linmin: -1.227e-02  cgtest:  1.178e-01  t[s]:    595.52
	FillingsUpdate:  mu: +0.218072717  nElectrons: 339.000000
LCAOMinimize: Iter:   3  F: -1818.5952056779060513  |grad|_K:  5.717e-03  alpha:  1.294e-01  linmin: -2.773e-02  cgtest:  4.510e-02  t[s]:    711.68
	FillingsUpdate:  mu: +0.238616485  nElectrons: 339.000000
LCAOMinimize: Iter:   4  F: -1818.9329683399887472  |grad|_K:  3.583e-03  alpha:  3.600e-02  linmin:  4.166e-02  cgtest: -7.244e-01  t[s]:    826.24
	FillingsUpdate:  mu: +0.285953398  nElectrons: 339.000000
LCAOMinimize: Iter:   5  F: -1818.9963750467134105  |grad|_K:  3.326e-03  alpha:  2.307e-02  linmin: -2.697e-04  cgtest:  9.640e-01  t[s]:    943.96
LCAOMinimize: Encountered beta<0, resetting CG.
	FillingsUpdate:  mu: +0.230527465  nElectrons: 339.000000
LCAOMinimize: Iter:   6  F: -1819.0830492407426391  |grad|_K:  1.555e-03  alpha:  2.395e-02  linmin:  1.577e-02  cgtest: -4.793e-02  t[s]:   1062.14
LCAOMinimize: 	Predicted alpha/alphaT>3.000000, increasing alphaT to 7.185003e-02.
	FillingsUpdate:  mu: +0.221335551  nElectrons: 339.000000
LCAOMinimize: Iter:   7  F: -1819.2043575762047567  |grad|_K:  1.253e-03  alpha:  1.505e-01  linmin: -2.235e-02  cgtest:  3.037e-01  t[s]:   1210.49
	FillingsUpdate:  mu: +0.216763625  nElectrons: 339.000000
LCAOMinimize: Iter:   8  F: -1819.2323352521000288  |grad|_K:  1.515e-03  alpha:  5.498e-02  linmin:  6.634e-03  cgtest: -1.044e-01  t[s]:   1328.20
	FillingsUpdate:  mu: +0.191085547  nElectrons: 339.000000
LCAOMinimize: Iter:   9  F: -1819.2731502659516991  |grad|_K:  1.079e-03  alpha:  5.687e-02  linmin: -1.068e-03  cgtest:  3.030e-01  t[s]:   1446.68
	FillingsUpdate:  mu: +0.218927099  nElectrons: 339.000000
LCAOMinimize: Iter:  10  F: -1819.2985744273000819  |grad|_K:  1.085e-03  alpha:  6.674e-02  linmin:  4.468e-03  cgtest: -2.728e-02  t[s]:   1560.02
	FillingsUpdate:  mu: +0.219680044  nElectrons: 339.000000
LCAOMinimize: Iter:  11  F: -1819.3091761300918279  |grad|_K:  3.893e-04  alpha:  2.784e-02  linmin: -3.948e-03  cgtest:  1.203e-01  t[s]:   1677.91
	FillingsUpdate:  mu: +0.213009812  nElectrons: 339.000000
LCAOMinimize: Iter:  12  F: -1819.3132631211976786  |grad|_K:  3.573e-04  alpha:  8.119e-02  linmin: -3.625e-03  cgtest: -1.057e-02  t[s]:   1793.80
	FillingsUpdate:  mu: +0.211401813  nElectrons: 339.000000
LCAOMinimize: Iter:  13  F: -1819.3145374257055664  |grad|_K:  2.279e-04  alpha:  3.015e-02  linmin:  9.596e-04  cgtest: -2.394e-02  t[s]:   1911.19
LCAOMinimize: 	Predicted alpha/alphaT>3.000000, increasing alphaT to 9.043822e-02.
	FillingsUpdate:  mu: +0.217691062  nElectrons: 339.000000
LCAOMinimize: Iter:  14  F: -1819.3167794101425443  |grad|_K:  1.921e-04  alpha:  1.320e-01  linmin: -3.675e-04  cgtest:  4.876e-02  t[s]:   2057.61
	FillingsUpdate:  mu: +0.217283167  nElectrons: 339.000000
LCAOMinimize: Iter:  15  F: -1819.3172439324816878  |grad|_K:  1.706e-04  alpha:  3.833e-02  linmin: -8.438e-05  cgtest: -9.319e-04  t[s]:   2173.50
	FillingsUpdate:  mu: +0.215222356  nElectrons: 339.000000
LCAOMinimize: Iter:  16  F: -1819.3177862344498408  |grad|_K:  7.558e-05  alpha:  5.672e-02  linmin: -1.586e-03  cgtest:  1.563e-02  t[s]:   2288.08
	FillingsUpdate:  mu: +0.215235943  nElectrons: 339.000000
LCAOMinimize: Iter:  17  F: -1819.3179178603215860  |grad|_K:  7.762e-05  alpha:  6.998e-02  linmin:  8.275e-05  cgtest: -5.037e-03  t[s]:   2404.84
	FillingsUpdate:  mu: +0.215174719  nElectrons: 339.000000
LCAOMinimize: Iter:  18  F: -1819.3179746493406128  |grad|_K:  2.902e-05  alpha:  2.874e-02  linmin: -3.367e-04  cgtest:  1.158e-02  t[s]:   2521.00
LCAOMinimize: 	Predicted alpha/alphaT>3.000000, increasing alphaT to 8.621158e-02.
	FillingsUpdate:  mu: +0.215233608  nElectrons: 339.000000
LCAOMinimize: Iter:  19  F: -1819.3179993476721847  |grad|_K:  2.367e-05  alpha:  8.941e-02  linmin:  9.756e-05  cgtest: -2.575e-03  t[s]:   2667.53
	FillingsUpdate:  mu: +0.215208675  nElectrons: 339.000000
LCAOMinimize: Iter:  20  F: -1819.3180054684260085  |grad|_K:  1.921e-05  alpha:  3.336e-02  linmin: -1.539e-05  cgtest:  9.287e-04  t[s]:   2786.78
LCAOMinimize: 	Predicted alpha/alphaT>3.000000, increasing alphaT to 1.000755e-01.
	FillingsUpdate:  mu: +0.214933360  nElectrons: 339.000000
LCAOMinimize: Iter:  21  F: -1819.3180195396139425  |grad|_K:  1.491e-05  alpha:  1.163e-01  linmin: -1.317e-05  cgtest: -2.000e-03  t[s]:   2934.30
	FillingsUpdate:  mu: +0.215072764  nElectrons: 339.000000
LCAOMinimize: Iter:  22  F: -1819.3180240465769657  |grad|_K:  1.765e-05  alpha:  6.186e-02  linmin: -9.059e-06  cgtest:  2.535e-04  t[s]:   3052.39
	FillingsUpdate:  mu: +0.215291524  nElectrons: 339.000000
LCAOMinimize: Iter:  23  F: -1819.3180281468974044  |grad|_K:  6.194e-06  alpha:  4.018e-02  linmin: -5.779e-07  cgtest:  1.018e-04  t[s]:   3168.09
	FillingsUpdate:  mu: +0.215222115  nElectrons: 339.000000
LCAOMinimize: Iter:  24  F: -1819.3180292001204634  |grad|_K:  6.278e-06  alpha:  8.380e-02  linmin:  2.964e-05  cgtest: -3.455e-04  t[s]:   3287.26
	FillingsUpdate:  mu: +0.215194935  nElectrons: 339.000000
LCAOMinimize: Iter:  25  F: -1819.3180295693773587  |grad|_K:  3.411e-06  alpha:  2.861e-02  linmin:  1.098e-05  cgtest:  6.394e-04  t[s]:   3404.80
LCAOMinimize: 	Predicted alpha/alphaT>3.000000, increasing alphaT to 8.583063e-02.
	FillingsUpdate:  mu: +0.215271311  nElectrons: 339.000000
LCAOMinimize: Iter:  26  F: -1819.3180301919755948  |grad|_K:  3.897e-06  alpha:  1.633e-01  linmin:  2.032e-05  cgtest: -2.979e-04  t[s]:   3550.17
LCAOMinimize: Converged (|Delta F|<1.000000e-06 for 2 iters).


---- Citations for features of the code used in this run ----

   Software package:
      R. Sundararaman, K. Letchworth-Weaver, K.A. Schwarz, D. Gunceler, Y. Ozhabes and T.A. Arias, 'JDFTx: software for joint density-functional theory', SoftwareX 6, 278 (2017)

   gga-PBEsol exchange-correlation functional:
      J.P. Perdew et al., Phys. Rev. Lett. 100, 136406 (2008)

   Pseudopotentials:
      KF Garrity, JW Bennett, KM Rabe and D Vanderbilt, Comput. Mater. Sci. 81, 446 (2014)

   Total energy minimization with Auxiliary Hamiltonian:
      C. Freysoldt, S. Boeck, and J. Neugebauer, Phys. Rev. B 79, 241103(R) (2009)

This list may not be complete. Please suggest additional citations or
report any other bugs at https://github.com/shankar1729/jdftx/issues

Initialization completed successfully at t[s]:   3647.10


-------- Electronic minimization -----------
	FillingsUpdate:  mu: +0.215271311  nElectrons: 339.000000
ElecMinimize: Iter:   0  F: -1819.318030191975140  |grad|_K:  1.310e-04  alpha:  1.000e+00
	FillingsUpdate:  mu: +0.242312970  nElectrons: 339.000000
	SubspaceRotationAdjust: set factor to 1
ElecMinimize: Iter:   1  F: -1819.734024859584451  |grad|_K:  6.502e-05  alpha:  4.379e-01  linmin:  7.188e-05  t[s]:   4331.01
	FillingsUpdate:  mu: +0.210522637  nElectrons: 339.000000
	SubspaceRotationAdjust: set factor to 0.599
ElecMinimize: Iter:   2  F: -1819.802655345888297  |grad|_K:  8.229e-05  alpha:  2.939e-01  linmin: -6.021e-06  t[s]:   4811.08
	FillingsUpdate:  mu: +0.220366604  nElectrons: 339.000000
	SubspaceRotationAdjust: set factor to 0.424
ElecMinimize: Iter:   3  F: -1819.826832344038394  |grad|_K:  5.155e-05  alpha:  5.941e-02  linmin: -2.896e-04  t[s]:   5288.16
	FillingsUpdate:  mu: +0.226601346  nElectrons: 339.000000
	SubspaceRotationAdjust: set factor to 0.24
ElecMinimize: Iter:   4  F: -1819.835949685889773  |grad|_K:  3.136e-05  alpha:  5.766e-02  linmin:  3.106e-05  t[s]:   5760.84
ElecMinimize: 	Predicted alpha/alphaT>3.000000, increasing alphaT to 1.729842e-01.
	FillingsUpdate:  mu: +0.237339740  nElectrons: 339.000000
	SubspaceRotationAdjust: set factor to 0.209
ElecMinimize: Iter:   5  F: -1819.850779156105318  |grad|_K:  2.151e-05  alpha:  2.732e-01  linmin:  3.377e-05  t[s]:   6345.98
	FillingsUpdate:  mu: +0.230370534  nElectrons: 339.000000
	SubspaceRotationAdjust: set factor to 0.191
ElecMinimize: Iter:   6  F: -1819.855714664900006  |grad|_K:  1.678e-05  alpha:  1.929e-01  linmin: -3.085e-06  t[s]:   6814.43
	FillingsUpdate:  mu: +0.225197605  nElectrons: 339.000000
	SubspaceRotationAdjust: set factor to 0.159
ElecMinimize: Iter:   7  F: -1819.858385263408763  |grad|_K:  1.140e-05  alpha:  1.698e-01  linmin: -4.621e-06  t[s]:   7291.13
	FillingsUpdate:  mu: +0.225759949  nElectrons: 339.000000
	SubspaceRotationAdjust: set factor to 0.241
ElecMinimize: Iter:   8  F: -1819.860489164596402  |grad|_K:  8.220e-06  alpha:  2.901e-01  linmin:  1.025e-05  t[s]:   7764.82
	FillingsUpdate:  mu: +0.227722885  nElectrons: 339.000000
	SubspaceRotationAdjust: set factor to 0.209
ElecMinimize: Iter:   9  F: -1819.861395172525363  |grad|_K:  7.725e-06  alpha:  2.406e-01  linmin:  3.871e-06  t[s]:   8241.08
	FillingsUpdate:  mu: +0.228359476  nElectrons: 339.000000
	SubspaceRotationAdjust: set factor to 0.197
ElecMinimize: Iter:  10  F: -1819.862035578081759  |grad|_K:  5.627e-06  alpha:  1.923e-01  linmin:  3.095e-06  t[s]:   8712.98
	FillingsUpdate:  mu: +0.226229307  nElectrons: 339.000000
	SubspaceRotationAdjust: set factor to 0.204
ElecMinimize: Iter:  11  F: -1819.862581924713368  |grad|_K:  4.579e-06  alpha:  3.097e-01  linmin:  7.069e-06  t[s]:   9186.96
	FillingsUpdate:  mu: +0.225510246  nElectrons: 339.000000
	SubspaceRotationAdjust: set factor to 0.254
ElecMinimize: Iter:  12  F: -1819.863035474416165  |grad|_K:  4.012e-06  alpha:  3.889e-01  linmin:  6.437e-06  t[s]:   9658.63
	FillingsUpdate:  mu: +0.227219160  nElectrons: 339.000000
	SubspaceRotationAdjust: set factor to 0.243
ElecMinimize: Iter:  13  F: -1819.863326625480795  |grad|_K:  3.775e-06  alpha:  3.249e-01  linmin:  1.601e-06  t[s]:  10129.79
	FillingsUpdate:  mu: +0.227721345  nElectrons: 339.000000
	SubspaceRotationAdjust: set factor to 0.199
ElecMinimize: Iter:  14  F: -1819.863487075389457  |grad|_K:  3.540e-06  alpha:  2.017e-01  linmin: -2.890e-07  t[s]:  10601.01
	FillingsUpdate:  mu: +0.227489348  nElectrons: 339.000000
	SubspaceRotationAdjust: set factor to 0.178
ElecMinimize: Iter:  15  F: -1819.863617119887294  |grad|_K:  2.279e-06  alpha:  1.858e-01  linmin:  1.865e-06  t[s]:  11075.05
	FillingsUpdate:  mu: +0.226981110  nElectrons: 339.000000
	SubspaceRotationAdjust: set factor to 0.192
ElecMinimize: Iter:  16  F: -1819.863715513662555  |grad|_K:  1.821e-06  alpha:  3.405e-01  linmin:  4.018e-06  t[s]:  11551.43
	FillingsUpdate:  mu: +0.227321308  nElectrons: 339.000000
	SubspaceRotationAdjust: set factor to 0.185
ElecMinimize: Iter:  17  F: -1819.863761501193721  |grad|_K:  1.491e-06  alpha:  2.493e-01  linmin: -5.423e-07  t[s]:  12025.35
	FillingsUpdate:  mu: +0.227782155  nElectrons: 339.000000
	SubspaceRotationAdjust: set factor to 0.144
ElecMinimize: Iter:  18  F: -1819.863786375926338  |grad|_K:  1.085e-06  alpha:  2.004e-01  linmin: -2.590e-07  t[s]:  12499.59
	FillingsUpdate:  mu: +0.227893790  nElectrons: 339.000000
	SubspaceRotationAdjust: set factor to 0.192
ElecMinimize: Iter:  19  F: -1819.863805471715978  |grad|_K:  7.338e-07  alpha:  2.907e-01  linmin: -3.538e-07  t[s]:  12975.15
	FillingsUpdate:  mu: +0.227666068  nElectrons: 339.000000
	SubspaceRotationAdjust: set factor to 0.193
ElecMinimize: Iter:  20  F: -1819.863814739710961  |grad|_K:  6.292e-07  alpha:  3.083e-01  linmin: -2.759e-07  t[s]:  13455.98
	FillingsUpdate:  mu: +0.227581578  nElectrons: 339.000000
	SubspaceRotationAdjust: set factor to 0.176
ElecMinimize: Iter:  21  F: -1819.863819650798632  |grad|_K:  5.273e-07  alpha:  2.221e-01  linmin: -1.043e-07  t[s]:  13934.50
	FillingsUpdate:  mu: +0.227620115  nElectrons: 339.000000
	SubspaceRotationAdjust: set factor to 0.207
ElecMinimize: Iter:  22  F: -1819.863823596079101  |grad|_K:  3.875e-07  alpha:  2.542e-01  linmin: -4.809e-08  t[s]:  14408.45
	FillingsUpdate:  mu: +0.227689235  nElectrons: 339.000000
	SubspaceRotationAdjust: set factor to 0.249
ElecMinimize: Iter:  23  F: -1819.863826767129467  |grad|_K:  3.553e-07  alpha:  3.783e-01  linmin:  1.447e-07  t[s]:  14888.55
	FillingsUpdate:  mu: +0.227604710  nElectrons: 339.000000
	SubspaceRotationAdjust: set factor to 0.246
ElecMinimize: Iter:  24  F: -1819.863828729223769  |grad|_K:  3.686e-07  alpha:  2.785e-01  linmin:  8.869e-08  t[s]:  15362.90
	FillingsUpdate:  mu: +0.227503261  nElectrons: 339.000000
	SubspaceRotationAdjust: set factor to 0.204
ElecMinimize: Iter:  25  F: -1819.863830096136553  |grad|_K:  3.217e-07  alpha:  1.803e-01  linmin:  2.208e-08  t[s]:  15837.98
	FillingsUpdate:  mu: +0.227467933  nElectrons: 339.000000
	SubspaceRotationAdjust: set factor to 0.248
ElecMinimize: Iter:  26  F: -1819.863831795253418  |grad|_K:  2.418e-07  alpha:  2.943e-01  linmin:  3.599e-07  t[s]:  16311.60
	FillingsUpdate:  mu: +0.227523616  nElectrons: 339.000000
	SubspaceRotationAdjust: set factor to 0.25
ElecMinimize: Iter:  27  F: -1819.863832880140990  |grad|_K:  2.122e-07  alpha:  3.330e-01  linmin:  9.560e-08  t[s]:  16786.19
	FillingsUpdate:  mu: +0.227506373  nElectrons: 339.000000
	SubspaceRotationAdjust: set factor to 0.232
ElecMinimize: Iter:  28  F: -1819.863833528676878  |grad|_K:  2.093e-07  alpha:  2.580e-01  linmin: -4.501e-08  t[s]:  17262.93
	FillingsUpdate:  mu: +0.227485873  nElectrons: 339.000000
	SubspaceRotationAdjust: set factor to 0.178
ElecMinimize: Iter:  29  F: -1819.863833890892693  |grad|_K:  1.435e-07  alpha:  1.481e-01  linmin: -3.538e-08  t[s]:  17737.62
	FillingsUpdate:  mu: +0.227472343  nElectrons: 339.000000
	SubspaceRotationAdjust: set factor to 0.223
ElecMinimize: Iter:  30  F: -1819.863834246686110  |grad|_K:  1.073e-07  alpha:  3.097e-01  linmin:  1.156e-07  t[s]:  18215.40
	FillingsUpdate:  mu: +0.227496289  nElectrons: 339.000000
	SubspaceRotationAdjust: set factor to 0.24
ElecMinimize: Iter:  31  F: -1819.863834434504952  |grad|_K:  9.220e-08  alpha:  2.923e-01  linmin: -1.541e-07  t[s]:  18694.63
	FillingsUpdate:  mu: +0.227512418  nElectrons: 339.000000
	SubspaceRotationAdjust: set factor to 0.208
ElecMinimize: Iter:  32  F: -1819.863834525181574  |grad|_K:  8.401e-08  alpha:  1.910e-01  linmin:  1.344e-08  t[s]:  19169.54
	FillingsUpdate:  mu: +0.227512851  nElectrons: 339.000000
	SubspaceRotationAdjust: set factor to 0.255
ElecMinimize: Iter:  33  F: -1819.863834619172621  |grad|_K:  5.909e-08  alpha:  2.390e-01  linmin:  2.150e-07  t[s]:  19645.15
	FillingsUpdate:  mu: +0.227505325  nElectrons: 339.000000
	SubspaceRotationAdjust: set factor to 0.295
ElecMinimize: Iter:  34  F: -1819.863834686520704  |grad|_K:  5.352e-08  alpha:  3.460e-01  linmin:  1.100e-08  t[s]:  20124.88
	FillingsUpdate:  mu: +0.227519261  nElectrons: 339.000000
	SubspaceRotationAdjust: set factor to 0.324
ElecMinimize: Iter:  35  F: -1819.863834739942149  |grad|_K:  5.298e-08  alpha:  3.345e-01  linmin:  8.861e-08  t[s]:  20595.91
	FillingsUpdate:  mu: +0.227525456  nElectrons: 339.000000
	SubspaceRotationAdjust: set factor to 0.261
ElecMinimize: Iter:  36  F: -1819.863834763291607  |grad|_K:  5.202e-08  alpha:  1.496e-01  linmin:  5.771e-10  t[s]:  21069.69
	FillingsUpdate:  mu: +0.227530893  nElectrons: 339.000000
	SubspaceRotationAdjust: set factor to 0.259
ElecMinimize: Iter:  37  F: -1819.863834794869035  |grad|_K:  3.825e-08  alpha:  2.091e-01  linmin:  7.234e-08  t[s]:  21546.69
	FillingsUpdate:  mu: +0.227525117  nElectrons: 339.000000
	SubspaceRotationAdjust: set factor to 0.261
ElecMinimize: Iter:  38  F: -1819.863834818531132  |grad|_K:  2.928e-08  alpha:  2.880e-01  linmin: -5.360e-07  t[s]:  22022.24
	FillingsUpdate:  mu: +0.227526964  nElectrons: 339.000000
	SubspaceRotationAdjust: set factor to 0.3
ElecMinimize: Iter:  39  F: -1819.863834835218768  |grad|_K:  2.479e-08  alpha:  3.490e-01  linmin:  3.843e-07  t[s]:  22497.26
	FillingsUpdate:  mu: +0.227529354  nElectrons: 339.000000
	SubspaceRotationAdjust: set factor to 0.275
ElecMinimize: Iter:  40  F: -1819.863834843947416  |grad|_K:  2.443e-08  alpha:  2.547e-01  linmin:  5.344e-07  t[s]:  22973.97
	FillingsUpdate:  mu: +0.227528940  nElectrons: 339.000000
	SubspaceRotationAdjust: set factor to 0.229
ElecMinimize: Iter:  41  F: -1819.863834848639954  |grad|_K:  1.995e-08  alpha:  1.438e-01  linmin: -3.011e-08  t[s]:  23449.18
ElecMinimize: Converged (|Delta F|<1.000000e-08 for 2 iters).
Setting wave functions to eigenvectors of Hamiltonian

# Ionic positions in lattice coordinates:
ion O   0.667500000000000   0.480240000000000   0.321490000000000 1
ion O   0.430990000000000   0.716750000000000   0.321490000000000 1
ion C   0.500000000000000   0.500000000000000   0.292900000000000 1
ion H   0.425200000000000   0.350400000000000   0.314130000000000 1
ion H   0.710030000000000   0.329220000000000   0.300500000000000 1
ion H   0.316140000000000   0.723120000000000   0.300500000000000 1
ion Pt   0.000000000000000   0.000000000000000  -0.166660000000000 0
ion Pt   0.000000000000000   0.500000000000000  -0.166660000000000 0
ion Pt   0.500000000000000   0.000000000000000  -0.166660000000000 0
ion Pt   0.500000000000000   0.500000000000000  -0.166660000000000 0
ion Pt   0.250000000000000   0.250000000000000  -0.083330000000000 0
ion Pt   0.250000000000000   0.750000000000000  -0.083330000000000 0
ion Pt   0.750000000000000   0.250000000000000  -0.083330000000000 0
ion Pt   0.750000000000000   0.750000000000000  -0.083330000000000 0
ion Pt   0.000000000000000   0.000000000000000   0.000000000000000 1
ion Pt   0.000000000000000   0.500000000000000   0.000000000000000 1
ion Pt   0.500000000000000   0.000000000000000   0.000000000000000 1
ion Pt   0.500000000000000   0.500000000000000   0.000000000000000 1
ion Pt   0.250000000000000   0.250000000000000   0.083330000000000 1
ion Pt   0.250000000000000   0.750000000000000   0.083330000000000 1
ion Pt   0.750000000000000   0.250000000000000   0.083330000000000 1
ion Pt   0.750000000000000   0.750000000000000   0.083330000000000 1
ion Pt   0.000000000000000   0.000000000000000   0.166660000000000 1
ion Pt   0.000000000000000   0.500000000000000   0.166660000000000 1
ion Pt   0.500000000000000   0.000000000000000   0.166660000000000 1
ion Pt   0.500000000000000   0.500000000000000   0.166660000000000 1


# Forces in Lattice coordinates:
force O  -0.474103632429760   0.182608032449547  -0.261936762350331 1
force O   0.358115204681020  -0.185895762422254  -0.186682825801679 1
force C   0.331778479807695   0.248872982504508  -0.015075541796351 1
force H  -0.146539596650151  -0.133358700452063  -0.082384236524603 1
force H   0.038861786116358  -0.075364863275383  -0.109377333968009 1
force H  -0.119155889007210  -0.002937636901238  -0.107112079257746 1
force Pt   0.000041702408074   0.000262524336497   0.905219832495170 0
force Pt   0.000688421303155  -0.000189869636535   0.905296995385742 0
force Pt   0.000343743190512   0.001477815717236   0.913818473539751 0
force Pt  -0.000452410833037  -0.001714922514393   0.787005695552998 0
force Pt   0.006709422616560   0.002946423708494  -0.500839645071462 0
force Pt   0.006279557963188  -0.003231670126150  -0.496722943866867 0
force Pt  -0.006634625814032   0.003096014029843  -0.497658186577336 0
force Pt  -0.006175428591874  -0.003551813448231  -0.503504711942186 0
force Pt   0.001043638242865  -0.000305176605556  -0.037838604724106 1
force Pt  -0.003494759794540  -0.000895955897658  -0.010730505148285 1
force Pt  -0.002257428352343   0.000985683583593   0.029338587155943 1
force Pt   0.000151083181467   0.004132882743293   0.026372516849172 1
force Pt  -0.009777065775100  -0.001530033118538   0.472572696696352 1
force Pt  -0.010680057423739   0.000832657116102   0.464106961627341 1
force Pt   0.009195284862491  -0.003718963841219   0.468935879995438 1
force Pt   0.013610515755891   0.002890603230027   0.445526812888963 1
force Pt  -0.000389814430254  -0.000045597047949  -0.884177003954334 1
force Pt   0.003788551989820   0.001456598288240  -0.888329154331798 1
force Pt   0.009718926809708  -0.009746057081992  -0.940266145075158 1
force Pt  -0.000810406051951  -0.026936112819337   0.101126305501097 1

# Energy components:
   Eewald =     1984.5205217752277349
       EH =     3667.9879684036491199
     Eloc =    -7793.9855185175774750
      Enl =      -16.0837100621401454
      Exc =     -575.3859580219634609
 Exc_core =      324.9916482581806463
       KE =      588.3510204268600319
-------------------------------------
     Etot =    -1819.6040277377633174
       TS =        0.2598071108766463
-------------------------------------
        F =    -1819.8638348486399536

IonicMinimize: Iter:   0  F: -1819.863834848639954  |grad|_K:  1.137e-02  t[s]:  23525.02

#--- Lowdin population analysis ---
# oxidation-state O -0.403 -0.393
# oxidation-state C +0.267
# oxidation-state H +0.227 +0.429 +0.430
# oxidation-state Pt +0.073 +0.073 +0.074 +0.069 -0.050 -0.050 -0.050 -0.050 +0.004 +0.004 +0.005 -0.016 -0.049 -0.056 -0.055 -0.046 +0.014 +0.009 +0.008 -0.072


-------- Electronic minimization -----------
	FillingsUpdate:  mu: +0.217880866  nElectrons: 339.000000
ElecMinimize: Iter:   0  F: -1819.719706244772851  |grad|_K:  8.555e-05  alpha:  1.000e+00
	FillingsUpdate:  mu: +0.243244920  nElectrons: 339.000000
	SubspaceRotationAdjust: set factor to 0.145
ElecMinimize: Iter:   1  F: -1819.842616044242277  |grad|_K:  5.067e-05  alpha:  3.017e-01  linmin:  5.220e-04  t[s]:  24364.49
	FillingsUpdate:  mu: +0.231337899  nElectrons: 339.000000
	SubspaceRotationAdjust: set factor to 0.0768
ElecMinimize: Iter:   2  F: -1819.856436456704614  |grad|_K:  1.843e-05  alpha:  9.720e-02  linmin:  3.401e-04  t[s]:  24837.72
ElecMinimize: 	Predicted alpha/alphaT>3.000000, increasing alphaT to 2.915937e-01.
	FillingsUpdate:  mu: +0.228543204  nElectrons: 339.000000
	SubspaceRotationAdjust: set factor to 0.0918
ElecMinimize: Iter:   3  F: -1819.862644808219329  |grad|_K:  8.567e-06  alpha:  3.289e-01  linmin: -1.065e-05  t[s]:  25424.52
	FillingsUpdate:  mu: +0.228286166  nElectrons: 339.000000
	SubspaceRotationAdjust: set factor to 0.0814
ElecMinimize: Iter:   4  F: -1819.863929929620554  |grad|_K:  5.643e-06  alpha:  3.137e-01  linmin: -3.446e-05  t[s]:  25898.13
	FillingsUpdate:  mu: +0.229187783  nElectrons: 339.000000
	SubspaceRotationAdjust: set factor to 0.102
ElecMinimize: Iter:   5  F: -1819.864775229924817  |grad|_K:  5.119e-06  alpha:  4.757e-01  linmin:  4.038e-05  t[s]:  26370.24
	FillingsUpdate:  mu: +0.229030974  nElectrons: 339.000000
	SubspaceRotationAdjust: set factor to 0.124
ElecMinimize: Iter:   6  F: -1819.865922546737465  |grad|_K:  5.860e-06  alpha:  7.875e-01  linmin:  3.223e-05  t[s]:  26839.99
	FillingsUpdate:  mu: +0.228412220  nElectrons: 339.000000
	SubspaceRotationAdjust: set factor to 0.109
ElecMinimize: Iter:   7  F: -1819.866850639317363  |grad|_K:  6.854e-06  alpha:  4.926e-01  linmin:  1.715e-05  t[s]:  27311.72
	FillingsUpdate:  mu: +0.228119973  nElectrons: 339.000000
	SubspaceRotationAdjust: set factor to 0.0877
ElecMinimize: Iter:   8  F: -1819.867891752158812  |grad|_K:  5.478e-06  alpha:  3.951e-01  linmin:  4.562e-05  t[s]:  27778.82
	FillingsUpdate:  mu: +0.228498907  nElectrons: 339.000000
	SubspaceRotationAdjust: set factor to 0.102
ElecMinimize: Iter:   9  F: -1819.868787621613365  |grad|_K:  3.738e-06  alpha:  5.382e-01  linmin: -2.619e-05  t[s]:  28245.79
	FillingsUpdate:  mu: +0.228305490  nElectrons: 339.000000
	SubspaceRotationAdjust: set factor to 0.0936
ElecMinimize: Iter:  10  F: -1819.869134547025624  |grad|_K:  2.471e-06  alpha:  4.436e-01  linmin: -1.531e-05  t[s]:  28720.16
	FillingsUpdate:  mu: +0.228290866  nElectrons: 339.000000
	SubspaceRotationAdjust: set factor to 0.0677
ElecMinimize: Iter:  11  F: -1819.869249717970888  |grad|_K:  1.698e-06  alpha:  3.371e-01  linmin:  4.768e-06  t[s]:  29196.91
	FillingsUpdate:  mu: +0.228305718  nElectrons: 339.000000
	SubspaceRotationAdjust: set factor to 0.0689
ElecMinimize: Iter:  12  F: -1819.869308328199622  |grad|_K:  9.259e-07  alpha:  3.643e-01  linmin: -5.298e-06  t[s]:  29672.18
	FillingsUpdate:  mu: +0.228374536  nElectrons: 339.000000
	SubspaceRotationAdjust: set factor to 0.0838
ElecMinimize: Iter:  13  F: -1819.869329436462522  |grad|_K:  6.008e-07  alpha:  4.409e-01  linmin: -4.343e-07  t[s]:  30147.99
	FillingsUpdate:  mu: +0.228409723  nElectrons: 339.000000
	SubspaceRotationAdjust: set factor to 0.0876
ElecMinimize: Iter:  14  F: -1819.869337911456341  |grad|_K:  4.585e-07  alpha:  4.206e-01  linmin:  4.901e-07  t[s]:  30624.93
	FillingsUpdate:  mu: +0.228424433  nElectrons: 339.000000
	SubspaceRotationAdjust: set factor to 0.102
ElecMinimize: Iter:  15  F: -1819.869343452965495  |grad|_K:  3.506e-07  alpha:  4.724e-01  linmin: -1.250e-07  t[s]:  31099.29
	FillingsUpdate:  mu: +0.228473272  nElectrons: 339.000000
	SubspaceRotationAdjust: set factor to 0.124
ElecMinimize: Iter:  16  F: -1819.869347402602216  |grad|_K:  3.099e-07  alpha:  5.757e-01  linmin:  2.514e-07  t[s]:  31577.25
	FillingsUpdate:  mu: +0.228501003  nElectrons: 339.000000
	SubspaceRotationAdjust: set factor to 0.147
ElecMinimize: Iter:  17  F: -1819.869350320160493  |grad|_K:  2.886e-07  alpha:  5.445e-01  linmin:  6.599e-08  t[s]:  32052.87
	FillingsUpdate:  mu: +0.228489641  nElectrons: 339.000000
	SubspaceRotationAdjust: set factor to 0.147
ElecMinimize: Iter:  18  F: -1819.869352494055875  |grad|_K:  2.865e-07  alpha:  4.675e-01  linmin: -2.726e-08  t[s]:  32529.96
	FillingsUpdate:  mu: +0.228492833  nElectrons: 339.000000
	SubspaceRotationAdjust: set factor to 0.121
ElecMinimize: Iter:  19  F: -1819.869353949437482  |grad|_K:  2.613e-07  alpha:  3.176e-01  linmin: -2.373e-08  t[s]:  33005.14
	FillingsUpdate:  mu: +0.228483676  nElectrons: 339.000000
	SubspaceRotationAdjust: set factor to 0.124
ElecMinimize: Iter:  20  F: -1819.869355342387053  |grad|_K:  1.794e-07  alpha:  3.654e-01  linmin:  8.884e-08  t[s]:  33475.34
	FillingsUpdate:  mu: +0.228468100  nElectrons: 339.000000
	SubspaceRotationAdjust: set factor to 0.143
ElecMinimize: Iter:  21  F: -1819.869356252953594  |grad|_K:  1.338e-07  alpha:  5.068e-01  linmin:  8.097e-09  t[s]:  33944.23
	FillingsUpdate:  mu: +0.228447769  nElectrons: 339.000000
	SubspaceRotationAdjust: set factor to 0.164
ElecMinimize: Iter:  22  F: -1819.869356697134208  |grad|_K:  9.646e-08  alpha:  4.447e-01  linmin: -4.245e-09  t[s]:  34420.47
	FillingsUpdate:  mu: +0.228437410  nElectrons: 339.000000
	SubspaceRotationAdjust: set factor to 0.16
ElecMinimize: Iter:  23  F: -1819.869356900247567  |grad|_K:  8.009e-08  alpha:  3.912e-01  linmin: -1.318e-07  t[s]:  34896.31
	FillingsUpdate:  mu: +0.228438166  nElectrons: 339.000000
	SubspaceRotationAdjust: set factor to 0.122
ElecMinimize: Iter:  24  F: -1819.869356987262336  |grad|_K:  6.406e-08  alpha:  2.427e-01  linmin: -4.363e-08  t[s]:  35372.63
	FillingsUpdate:  mu: +0.228436776  nElectrons: 339.000000
	SubspaceRotationAdjust: set factor to 0.129
ElecMinimize: Iter:  25  F: -1819.869357060141510  |grad|_K:  4.045e-08  alpha:  3.190e-01  linmin:  3.801e-07  t[s]:  35847.32
	FillingsUpdate:  mu: +0.228436057  nElectrons: 339.000000
	SubspaceRotationAdjust: set factor to 0.168
ElecMinimize: Iter:  26  F: -1819.869357101833430  |grad|_K:  3.046e-08  alpha:  4.594e-01  linmin:  1.544e-06  t[s]:  36318.88
	FillingsUpdate:  mu: +0.228437558  nElectrons: 339.000000
	SubspaceRotationAdjust: set factor to 0.163
ElecMinimize: Iter:  27  F: -1819.869357126437080  |grad|_K:  3.087e-08  alpha:  4.798e-01  linmin:  6.529e-07  t[s]:  36794.84
	FillingsUpdate:  mu: +0.228438465  nElectrons: 339.000000
	SubspaceRotationAdjust: set factor to 0.132
ElecMinimize: Iter:  28  F: -1819.869357140229795  |grad|_K:  2.789e-08  alpha:  2.597e-01  linmin:  2.862e-07  t[s]:  37273.31
	FillingsUpdate:  mu: +0.228441821  nElectrons: 339.000000
	SubspaceRotationAdjust: set factor to 0.14
ElecMinimize: Iter:  29  F: -1819.869357154659383  |grad|_K:  1.873e-08  alpha:  3.289e-01  linmin: -4.008e-07  t[s]:  37746.58
	FillingsUpdate:  mu: +0.228443654  nElectrons: 339.000000
	SubspaceRotationAdjust: set factor to 0.162
ElecMinimize: Iter:  30  F: -1819.869357164000576  |grad|_K:  1.478e-08  alpha:  4.708e-01  linmin: -2.647e-06  t[s]:  38217.26
	FillingsUpdate:  mu: +0.228444070  nElectrons: 339.000000
	SubspaceRotationAdjust: set factor to 0.142
ElecMinimize: Iter:  31  F: -1819.869357168543502  |grad|_K:  1.336e-08  alpha:  3.528e-01  linmin: -7.185e-07  t[s]:  38697.28
ElecMinimize: Converged (|Delta F|<1.000000e-08 for 2 iters).
Setting wave functions to eigenvectors of Hamiltonian

# Ionic positions in lattice coordinates:
ion O   0.665401530825046   0.481856586133652   0.321232348386387 1
ion O   0.432575083232233   0.715104308363081   0.321306371207806 1
ion C   0.501468512082941   0.502203214213309   0.292885171086200 1
ion H   0.424551389009815   0.349219406665410   0.314048963526592 1
ion H   0.710202009355488   0.328552812520341   0.300392412022136 1
ion H   0.315612594295862   0.723093993788682   0.300394640218461 1
ion Pt   0.000000000000000   0.000000000000000  -0.166660000000000 0
ion Pt   0.000000000000000   0.500000000000000  -0.166660000000000 0
ion Pt   0.500000000000000   0.000000000000000  -0.166660000000000 0
ion Pt   0.500000000000000   0.500000000000000  -0.166660000000000 0
ion Pt   0.250000000000000   0.250000000000000  -0.083330000000000 0
ion Pt   0.250000000000000   0.750000000000000  -0.083330000000000 0
ion Pt   0.750000000000000   0.250000000000000  -0.083330000000000 0
ion Pt   0.750000000000000   0.750000000000000  -0.083330000000000 0
ion Pt   0.000004619333269  -0.000002701656999  -0.000037219584897 1
ion Pt  -0.000015468444452   0.499992068312324  -0.000010554959684 1
ion Pt   0.499990008210256   0.000008726025860   0.000028858623181 1
ion Pt   0.500000668721726   0.500036587442760   0.000025941076236 1
ion Pt   0.249956724923103   0.249986454975226   0.083794841653997 1
ion Pt   0.249952728117320   0.750007371318391   0.083786514413935 1
ion Pt   0.750040700008435   0.249967076884315   0.083791264333719 1
ion Pt   0.750060242625906   0.750025589833245   0.083768238226734 1
ion Pt  -0.000001725389788  -0.000000403659984   0.165790287670411 1
ion Pt   0.000016768822309   0.500012894923424   0.165786203447047 1
ion Pt   0.500043017743229  -0.000086279560243   0.165735116118368 1
ion Pt   0.499996412994960   0.499761540903245   0.166759471931917 1


# Forces in Lattice coordinates:
force O  -0.183170294374397   0.033446766717515  -0.301439123903538 1
force O   0.096017278800070  -0.077260465390239  -0.250605549988190 1
force C   0.074387865264935   0.048909985497965   0.005885958567198 1
force H  -0.042609562230015  -0.030145732746895  -0.259298236789406 1
force H  -0.049591186112340   0.068894642942893   0.054079167379366 1
force H   0.092007240146418  -0.014644668530132   0.045507022292779 1
force Pt   0.000009691442374   0.000208365721815   0.909058523544774 0
force Pt   0.000576493067982  -0.000205399340821   0.909931376004615 0
force Pt   0.000412329531070   0.001369091881983   0.919838397626653 0
force Pt  -0.000327384583330  -0.001619783762818   0.792056240965207 0
force Pt   0.008008547931330   0.003210132064129  -0.488488425819543 0
force Pt   0.007507865441208  -0.003420848126504  -0.484684496067839 0
force Pt  -0.007976182794309   0.003237394490750  -0.485349649202024 0
force Pt  -0.007465613509281  -0.003600143448991  -0.491710447411291 0
force Pt   0.000650099234328  -0.000277934326500  -0.053486958464657 1
force Pt  -0.003035699173672  -0.000811292602039  -0.028732655592313 1
force Pt  -0.002185778876740   0.001197938653868   0.010060042005688 1
force Pt  -0.000048822732931   0.003294033419925   0.025988387706769 1
force Pt  -0.004493425006163   0.000612944476440   0.424684893565454 1
force Pt  -0.004485221467015  -0.001766731179530   0.420499335114026 1
force Pt   0.004511117319625  -0.000646323564263   0.424200539296479 1
force Pt   0.007114319869049  -0.000724245407207   0.402730365992981 1
force Pt  -0.000510096204357   0.000005101018711  -0.818817092418404 1
force Pt   0.003928522030375   0.001200517841402  -0.828049326100621 1
force Pt   0.009407259008431  -0.008427838205780  -0.879318507906025 1
force Pt   0.000715686311023  -0.022100320119778   0.051245763797546 1

# Energy components:
   Eewald =     1989.3502144333333490
       EH =     3673.0054662325865138
     Eloc =    -7803.8508787395157924
      Enl =      -16.0742433336889725
      Exc =     -575.3963347308168750
 Exc_core =      324.9916496710530396
       KE =      588.3640555810892465
-------------------------------------
     Etot =    -1819.6100708859594306
       TS =        0.2592862825839783
-------------------------------------
        F =    -1819.8693571685435018

IonicMinimize: Iter:   1  F: -1819.869357168543502  |grad|_K:  7.963e-03  alpha:  1.000e+00  linmin: -5.627e-01  t[s]:  38774.36

#--- Lowdin population analysis ---
# oxidation-state O -0.391 -0.385
# oxidation-state C +0.281
# oxidation-state H +0.217 +0.428 +0.429
# oxidation-state Pt +0.071 +0.072 +0.073 +0.068 -0.051 -0.051 -0.051 -0.050 +0.004 +0.004 +0.004 -0.016 -0.049 -0.057 -0.056 -0.045 +0.012 +0.007 +0.005 -0.076


-------- Electronic minimization -----------
	FillingsUpdate:  mu: +0.205575732  nElectrons: 339.000000
ElecMinimize: Iter:   0  F: -1818.400862071605843  |grad|_K:  2.671e-04  alpha:  1.000e+00
	FillingsUpdate:  mu: +0.268024997  nElectrons: 339.000000
	SubspaceRotationAdjust: set factor to 0.12
ElecMinimize: Iter:   1  F: -1819.666511262033282  |grad|_K:  1.006e-04  alpha:  3.271e-01  linmin:  8.260e-03  t[s]:  39609.55
	FillingsUpdate:  mu: +0.242654422  nElectrons: 339.000000
	SubspaceRotationAdjust: set factor to 0.0671
ElecMinimize: Iter:   2  F: -1819.764438966935813  |grad|_K:  5.152e-05  alpha:  1.795e-01  linmin:  2.092e-04  t[s]:  40078.17
	FillingsUpdate:  mu: +0.228688647  nElectrons: 339.000000
	SubspaceRotationAdjust: set factor to 0.113
ElecMinimize: Iter:   3  F: -1819.807331635127639  |grad|_K:  2.082e-05  alpha:  2.895e-01  linmin: -3.482e-04  t[s]:  40547.28
	FillingsUpdate:  mu: +0.231505101  nElectrons: 339.000000
	SubspaceRotationAdjust: set factor to 0.0889
ElecMinimize: Iter:   4  F: -1819.817914761794327  |grad|_K:  1.780e-05  alpha:  4.347e-01  linmin: -1.397e-04  t[s]:  41020.13
	FillingsUpdate:  mu: +0.234597697  nElectrons: 339.000000
	SubspaceRotationAdjust: set factor to 0.0869
ElecMinimize: Iter:   5  F: -1819.826946951887294  |grad|_K:  2.184e-05  alpha:  5.116e-01  linmin:  2.003e-04  t[s]:  41492.92
	FillingsUpdate:  mu: +0.233466998  nElectrons: 339.000000
	SubspaceRotationAdjust: set factor to 0.122
ElecMinimize: Iter:   6  F: -1819.842604501298183  |grad|_K:  2.059e-05  alpha:  5.974e-01  linmin: -1.547e-04  t[s]:  41966.91
	FillingsUpdate:  mu: +0.233515379  nElectrons: 339.000000
	SubspaceRotationAdjust: set factor to 0.108
ElecMinimize: Iter:   7  F: -1819.853996787050164  |grad|_K:  2.203e-05  alpha:  4.822e-01  linmin: -1.676e-04  t[s]:  42440.80
	FillingsUpdate:  mu: +0.231928520  nElectrons: 339.000000
	SubspaceRotationAdjust: set factor to 0.0786
ElecMinimize: Iter:   8  F: -1819.863978787685937  |grad|_K:  1.825e-05  alpha:  3.466e-01  linmin:  6.102e-05  t[s]:  42913.31
	FillingsUpdate:  mu: +0.231499356  nElectrons: 339.000000
	SubspaceRotationAdjust: set factor to 0.112
ElecMinimize: Iter:   9  F: -1819.872806338701139  |grad|_K:  1.237e-05  alpha:  4.780e-01  linmin: -5.815e-05  t[s]:  43382.36
	FillingsUpdate:  mu: +0.230607930  nElectrons: 339.000000
	SubspaceRotationAdjust: set factor to 0.0891
ElecMinimize: Iter:  10  F: -1819.875876549199347  |grad|_K:  8.148e-06  alpha:  3.592e-01  linmin: -4.603e-05  t[s]:  43859.05
	FillingsUpdate:  mu: +0.230248231  nElectrons: 339.000000
	SubspaceRotationAdjust: set factor to 0.0649
ElecMinimize: Iter:  11  F: -1819.877023029515613  |grad|_K:  5.000e-06  alpha:  3.080e-01  linmin:  3.791e-05  t[s]:  44331.47
	FillingsUpdate:  mu: +0.230202234  nElectrons: 339.000000
	SubspaceRotationAdjust: set factor to 0.0803
ElecMinimize: Iter:  12  F: -1819.877619396426326  |grad|_K:  2.841e-06  alpha:  4.280e-01  linmin: -3.540e-05  t[s]:  44801.02
	FillingsUpdate:  mu: +0.230467068  nElectrons: 339.000000
	SubspaceRotationAdjust: set factor to 0.0895
ElecMinimize: Iter:  13  F: -1819.877818768714633  |grad|_K:  1.937e-06  alpha:  4.421e-01  linmin: -1.259e-05  t[s]:  45270.70
	FillingsUpdate:  mu: +0.230647465  nElectrons: 339.000000
	SubspaceRotationAdjust: set factor to 0.0973
ElecMinimize: Iter:  14  F: -1819.877907081863441  |grad|_K:  1.505e-06  alpha:  4.216e-01  linmin:  7.553e-06  t[s]:  45741.60
	FillingsUpdate:  mu: +0.230680424  nElectrons: 339.000000
	SubspaceRotationAdjust: set factor to 0.112
ElecMinimize: Iter:  15  F: -1819.877972352323013  |grad|_K:  1.256e-06  alpha:  5.161e-01  linmin: -7.769e-06  t[s]:  46213.95
	FillingsUpdate:  mu: +0.230776725  nElectrons: 339.000000
	SubspaceRotationAdjust: set factor to 0.134
ElecMinimize: Iter:  16  F: -1819.878023606477882  |grad|_K:  1.123e-06  alpha:  5.818e-01  linmin:  4.115e-06  t[s]:  46683.31
	FillingsUpdate:  mu: +0.230829993  nElectrons: 339.000000
	SubspaceRotationAdjust: set factor to 0.155
ElecMinimize: Iter:  17  F: -1819.878062008337110  |grad|_K:  9.909e-07  alpha:  5.460e-01  linmin:  9.163e-07  t[s]:  47153.07
	FillingsUpdate:  mu: +0.230768147  nElectrons: 339.000000
	SubspaceRotationAdjust: set factor to 0.182
ElecMinimize: Iter:  18  F: -1819.878092692121982  |grad|_K:  8.328e-07  alpha:  5.599e-01  linmin:  9.206e-07  t[s]:  47621.74
	FillingsUpdate:  mu: +0.230703304  nElectrons: 339.000000
	SubspaceRotationAdjust: set factor to 0.194
ElecMinimize: Iter:  19  F: -1819.878111935208153  |grad|_K:  7.113e-07  alpha:  4.971e-01  linmin:  1.032e-06  t[s]:  48091.77
	FillingsUpdate:  mu: +0.230633289  nElectrons: 339.000000
	SubspaceRotationAdjust: set factor to 0.154
ElecMinimize: Iter:  20  F: -1819.878118840503021  |grad|_K:  6.797e-07  alpha:  2.445e-01  linmin:  2.708e-07  t[s]:  48565.90
	FillingsUpdate:  mu: +0.230561051  nElectrons: 339.000000
	SubspaceRotationAdjust: set factor to 0.129
ElecMinimize: Iter:  21  F: -1819.878125628336647  |grad|_K:  4.146e-07  alpha:  2.632e-01  linmin:  1.526e-06  t[s]:  49041.87
	FillingsUpdate:  mu: +0.230479835  nElectrons: 339.000000
	SubspaceRotationAdjust: set factor to 0.146
ElecMinimize: Iter:  22  F: -1819.878129674159027  |grad|_K:  2.670e-07  alpha:  4.217e-01  linmin: -1.167e-06  t[s]:  49519.63
	FillingsUpdate:  mu: +0.230467434  nElectrons: 339.000000
	SubspaceRotationAdjust: set factor to 0.176
ElecMinimize: Iter:  23  F: -1819.878131449422881  |grad|_K:  1.881e-07  alpha:  4.461e-01  linmin: -3.347e-07  t[s]:  49990.48
	FillingsUpdate:  mu: +0.230484894  nElectrons: 339.000000
	SubspaceRotationAdjust: set factor to 0.221
ElecMinimize: Iter:  24  F: -1819.878132432112125  |grad|_K:  1.515e-07  alpha:  4.976e-01  linmin:  9.201e-07  t[s]:  50458.17
	FillingsUpdate:  mu: +0.230493665  nElectrons: 339.000000
	SubspaceRotationAdjust: set factor to 0.172
ElecMinimize: Iter:  25  F: -1819.878132973490438  |grad|_K:  1.617e-07  alpha:  4.225e-01  linmin: -8.038e-07  t[s]:  50931.51
	FillingsUpdate:  mu: +0.230506356  nElectrons: 339.000000
	SubspaceRotationAdjust: set factor to 0.128
ElecMinimize: Iter:  26  F: -1819.878133215471962  |grad|_K:  1.182e-07  alpha:  1.659e-01  linmin: -3.281e-07  t[s]:  51404.80
	FillingsUpdate:  mu: +0.230524224  nElectrons: 339.000000
	SubspaceRotationAdjust: set factor to 0.168
ElecMinimize: Iter:  27  F: -1819.878133552031159  |grad|_K:  9.106e-08  alpha:  4.319e-01  linmin:  3.730e-06  t[s]:  51877.49
	FillingsUpdate:  mu: +0.230532380  nElectrons: 339.000000
	SubspaceRotationAdjust: set factor to 0.158
ElecMinimize: Iter:  28  F: -1819.878133735481015  |grad|_K:  8.763e-08  alpha:  3.970e-01  linmin:  4.840e-07  t[s]:  52348.18
	FillingsUpdate:  mu: +0.230539387  nElectrons: 339.000000
	SubspaceRotationAdjust: set factor to 0.116
ElecMinimize: Iter:  29  F: -1819.878133821545134  |grad|_K:  6.018e-08  alpha:  2.008e-01  linmin: -4.536e-07  t[s]:  52824.04
	FillingsUpdate:  mu: +0.230544391  nElectrons: 339.000000
	SubspaceRotationAdjust: set factor to 0.14
ElecMinimize: Iter:  30  F: -1819.878133899712111  |grad|_K:  4.193e-08  alpha:  3.863e-01  linmin: -8.198e-08  t[s]:  53293.97
	FillingsUpdate:  mu: +0.230547619  nElectrons: 339.000000
	SubspaceRotationAdjust: set factor to 0.146
ElecMinimize: Iter:  31  F: -1819.878133938075280  |grad|_K:  3.343e-08  alpha:  3.897e-01  linmin: -6.114e-06  t[s]:  53771.02
	FillingsUpdate:  mu: +0.230549667  nElectrons: 339.000000
	SubspaceRotationAdjust: set factor to 0.122
ElecMinimize: Iter:  32  F: -1819.878133954608984  |grad|_K:  2.687e-08  alpha:  2.648e-01  linmin: -1.002e-06  t[s]:  54245.92
	FillingsUpdate:  mu: +0.230549466  nElectrons: 339.000000
	SubspaceRotationAdjust: set factor to 0.149
ElecMinimize: Iter:  33  F: -1819.878133968356224  |grad|_K:  1.843e-08  alpha:  3.420e-01  linmin:  5.607e-06  t[s]:  54721.27
	FillingsUpdate:  mu: +0.230549392  nElectrons: 339.000000
	SubspaceRotationAdjust: set factor to 0.19
ElecMinimize: Iter:  34  F: -1819.878133978427968  |grad|_K:  1.666e-08  alpha:  5.336e-01  linmin: -6.025e-06  t[s]:  55191.18
	FillingsUpdate:  mu: +0.230548819  nElectrons: 339.000000
	SubspaceRotationAdjust: set factor to 0.146
ElecMinimize: Iter:  35  F: -1819.878133984531360  |grad|_K:  1.957e-08  alpha:  3.861e-01  linmin:  5.571e-06  t[s]:  55662.78
	FillingsUpdate:  mu: +0.230546779  nElectrons: 339.000000
	SubspaceRotationAdjust: set factor to 0.121
ElecMinimize: Iter:  36  F: -1819.878133989019716  |grad|_K:  1.300e-08  alpha:  2.119e-01  linmin: -3.827e-06  t[s]:  56140.59
ElecMinimize: Converged (|Delta F|<1.000000e-08 for 2 iters).
Setting wave functions to eigenvectors of Hamiltonian

# Ionic positions in lattice coordinates:
ion O   0.661612742204789   0.483827784322162   0.320198973903113 1
ion O   0.434896334298043   0.711994097920901   0.320468387082603 1
ion C   0.503433043517252   0.504974661488891   0.292891625982814 1
ion H   0.423559154973845   0.347633775972907   0.313257204000639 1
ion H   0.709687672632340   0.329851202575265   0.300471520551623 1
ion H   0.316422935142788   0.722702032753928   0.300450964770149 1
ion Pt   0.000000000000000   0.000000000000000  -0.166660000000000 0
ion Pt   0.000000000000000   0.500000000000000  -0.166660000000000 0
ion Pt   0.500000000000000   0.000000000000000  -0.166660000000000 0
ion Pt   0.500000000000000   0.500000000000000  -0.166660000000000 0
ion Pt   0.250000000000000   0.250000000000000  -0.083330000000000 0
ion Pt   0.250000000000000   0.750000000000000  -0.083330000000000 0
ion Pt   0.750000000000000   0.250000000000000  -0.083330000000000 0
ion Pt   0.750000000000000   0.750000000000000  -0.083330000000000 0
ion Pt   0.000016111887275  -0.000011666275852  -0.000214708303960 1
ion Pt  -0.000064917603200   0.499965869055857  -0.000099377838555 1
ion Pt   0.499955195374764   0.000045348209032   0.000077345224371 1
ion Pt   0.500000507420156   0.500145991007227   0.000117608692544 1
ion Pt   0.249869449024034   0.249992748682785   0.085321094834464 1
ion Pt   0.249862795209933   0.749967346594009   0.085295136944925 1
ion Pt   0.750126422460823   0.249927821726186   0.085313671255950 1
ion Pt   0.750192707218108   0.750024776600667   0.085213812274660 1
ion Pt  -0.000009430661432  -0.000000552316811   0.162865914567619 1
ion Pt   0.000078516329609   0.500052463640100   0.162832811531762 1
ion Pt   0.500192856970087  -0.000361125400035   0.162600945997390 1
ion Pt   0.500003072483585   0.499032376908105   0.166973616971153 1


# Forces in Lattice coordinates:
force O   0.306560127151332  -0.040824050215479  -0.010646620825213 1
force O  -0.112413093002830   0.123668205890164  -0.071265527883416 1
force C  -0.350884181245303  -0.220037269237649  -0.246926981446964 1
force H   0.054136827586524   0.065057425993774  -0.417452990057778 1
force H  -0.098211267838558   0.124917041897288   0.089133085521527 1
force H   0.190665074672482  -0.028592590841421   0.084695423519661 1
force Pt   0.000027482903056   0.000131687261919   0.921386138303558 0
force Pt   0.000556684797529  -0.000200731246608   0.925479958922350 0
force Pt   0.000463578613342   0.001241868304405   0.940359778740542 0
force Pt  -0.000275832131344  -0.001546554674343   0.805133074370103 0
force Pt   0.011165381462366   0.004244715155480  -0.457263166206100 0
force Pt   0.010342660623297  -0.004278663963042  -0.456742801818242 0
force Pt  -0.011426693528998   0.003952962220736  -0.456883483472445 0
force Pt  -0.010638886769840  -0.004106287119699  -0.462946031735542 0
force Pt   0.000614046963769   0.000014217251371  -0.124032728943518 1
force Pt  -0.001416649976180  -0.000575719046608  -0.110701176613935 1
force Pt  -0.001902301940433   0.001679847099771  -0.080437840353885 1
force Pt  -0.000429809438877   0.001679535469982   0.021139666004679 1
force Pt   0.012594557438693   0.008631952640989   0.264833287405398 1
force Pt   0.015187653386276  -0.010923162258152   0.265947449189142 1
force Pt  -0.010411922654328   0.009461844771013   0.265071956263010 1
force Pt  -0.012583840940377  -0.012152389196480   0.253038774533468 1
force Pt  -0.000534486039521   0.000085000956101  -0.596684601359234 1
force Pt   0.002822280908327   0.000662771096646  -0.617055575726643 1
force Pt   0.006814409894340  -0.006749733362894  -0.648157051388137 1
force Pt  -0.000971002693595  -0.015333766738917  -0.051495924638135 1

# Energy components:
   Eewald =     2006.0717038782117925
       EH =     3690.0461448377386660
     Eloc =    -7837.7089740372093729
      Enl =      -16.0322338983914321
      Exc =     -575.4598559335522623
 Exc_core =      324.9916661761955083
       KE =      588.4708654522795541
-------------------------------------
     Etot =    -1819.6206835247276103
       TS =        0.2574504642921799
-------------------------------------
        F =    -1819.8781339890197160

IonicMinimize: Iter:   2  F: -1819.878133989019716  |grad|_K:  8.279e-03  alpha:  9.485e-01  linmin: -2.416e-01  t[s]:  56216.82

#--- Lowdin population analysis ---
# oxidation-state O -0.373 -0.376
# oxidation-state C +0.304
# oxidation-state H +0.202 +0.433 +0.431
# oxidation-state Pt +0.070 +0.071 +0.071 +0.067 -0.051 -0.051 -0.051 -0.051 +0.004 +0.002 +0.002 -0.018 -0.050 -0.058 -0.057 -0.046 +0.009 +0.003 -0.002 -0.082


-------- Electronic minimization -----------
	FillingsUpdate:  mu: +0.201949111  nElectrons: 339.000000
ElecMinimize: Iter:   0  F: -1818.512523813020607  |grad|_K:  2.559e-04  alpha:  1.000e+00
	FillingsUpdate:  mu: +0.250337871  nElectrons: 339.000000
	SubspaceRotationAdjust: set factor to 0.114
ElecMinimize: Iter:   1  F: -1819.703377331551110  |grad|_K:  7.863e-05  alpha:  3.367e-01  linmin:  1.052e-02  t[s]:  57050.03
	FillingsUpdate:  mu: +0.244318842  nElectrons: 339.000000
	SubspaceRotationAdjust: set factor to 0.0735
ElecMinimize: Iter:   2  F: -1819.790615552895588  |grad|_K:  4.317e-05  alpha:  2.613e-01  linmin: -2.292e-04  t[s]:  57513.08
	FillingsUpdate:  mu: +0.230779491  nElectrons: 339.000000
	SubspaceRotationAdjust: set factor to 0.0685
ElecMinimize: Iter:   3  F: -1819.816386903143211  |grad|_K:  1.913e-05  alpha:  2.474e-01  linmin: -2.254e-04  t[s]:  57979.07
	FillingsUpdate:  mu: +0.231861450  nElectrons: 339.000000
	SubspaceRotationAdjust: set factor to 0.0961
ElecMinimize: Iter:   4  F: -1819.826775285589065  |grad|_K:  1.561e-05  alpha:  5.068e-01  linmin:  1.193e-05  t[s]:  58456.89
	FillingsUpdate:  mu: +0.235482236  nElectrons: 339.000000
	SubspaceRotationAdjust: set factor to 0.0866
ElecMinimize: Iter:   5  F: -1819.837705067573552  |grad|_K:  2.088e-05  alpha:  8.131e-01  linmin:  3.254e-04  t[s]:  58923.92
	FillingsUpdate:  mu: +0.232876837  nElectrons: 339.000000
	SubspaceRotationAdjust: set factor to 0.0805
ElecMinimize: Iter:   6  F: -1819.848989360471251  |grad|_K:  1.928e-05  alpha:  4.991e-01  linmin:  5.937e-05  t[s]:  59401.05
	FillingsUpdate:  mu: +0.230953993  nElectrons: 339.000000
	SubspaceRotationAdjust: set factor to 0.081
ElecMinimize: Iter:   7  F: -1819.862759175106703  |grad|_K:  1.985e-05  alpha:  6.788e-01  linmin:  2.615e-04  t[s]:  59877.45
	FillingsUpdate:  mu: +0.232429919  nElectrons: 339.000000
	SubspaceRotationAdjust: set factor to 0.0919
ElecMinimize: Iter:   8  F: -1819.875205389232633  |grad|_K:  1.609e-05  alpha:  5.876e-01  linmin:  1.101e-04  t[s]:  60349.90
	FillingsUpdate:  mu: +0.230929314  nElectrons: 339.000000
	SubspaceRotationAdjust: set factor to 0.0728
ElecMinimize: Iter:   9  F: -1819.880588613287046  |grad|_K:  1.034e-05  alpha:  3.865e-01  linmin:  4.454e-06  t[s]:  60826.37
	FillingsUpdate:  mu: +0.230588719  nElectrons: 339.000000
	SubspaceRotationAdjust: set factor to 0.0653
ElecMinimize: Iter:  10  F: -1819.882773711145774  |grad|_K:  6.091e-06  alpha:  3.659e-01  linmin:  6.283e-05  t[s]:  61299.62
	FillingsUpdate:  mu: +0.230433878  nElectrons: 339.000000
	SubspaceRotationAdjust: set factor to 0.0805
ElecMinimize: Iter:  11  F: -1819.883694760523440  |grad|_K:  3.505e-06  alpha:  4.465e-01  linmin: -1.931e-05  t[s]:  61768.17
	FillingsUpdate:  mu: +0.230705340  nElectrons: 339.000000
	SubspaceRotationAdjust: set factor to 0.0855
ElecMinimize: Iter:  12  F: -1819.883995122457463  |grad|_K:  2.364e-06  alpha:  4.376e-01  linmin: -2.261e-05  t[s]:  62239.10
	FillingsUpdate:  mu: +0.231062276  nElectrons: 339.000000
	SubspaceRotationAdjust: set factor to 0.0937
ElecMinimize: Iter:  13  F: -1819.884130339715512  |grad|_K:  1.774e-06  alpha:  4.332e-01  linmin:  1.597e-05  t[s]:  62713.61
	FillingsUpdate:  mu: +0.231215581  nElectrons: 339.000000
	SubspaceRotationAdjust: set factor to 0.113
ElecMinimize: Iter:  14  F: -1819.884220771996297  |grad|_K:  1.405e-06  alpha:  5.151e-01  linmin: -1.480e-05  t[s]:  63180.99
	FillingsUpdate:  mu: +0.231342709  nElectrons: 339.000000
	SubspaceRotationAdjust: set factor to 0.14
ElecMinimize: Iter:  15  F: -1819.884286809544847  |grad|_K:  1.199e-06  alpha:  5.990e-01  linmin:  9.389e-06  t[s]:  63653.01
	FillingsUpdate:  mu: +0.231495144  nElectrons: 339.000000
	SubspaceRotationAdjust: set factor to 0.163
ElecMinimize: Iter:  16  F: -1819.884332111816320  |grad|_K:  1.058e-06  alpha:  5.646e-01  linmin:  4.311e-06  t[s]:  64126.32
	FillingsUpdate:  mu: +0.231504943  nElectrons: 339.000000
	SubspaceRotationAdjust: set factor to 0.172
ElecMinimize: Iter:  17  F: -1819.884363297047912  |grad|_K:  1.029e-06  alpha:  4.994e-01  linmin: -4.265e-07  t[s]:  64597.53
	FillingsUpdate:  mu: +0.231481776  nElectrons: 339.000000
	SubspaceRotationAdjust: set factor to 0.138
ElecMinimize: Iter:  18  F: -1819.884380041223949  |grad|_K:  9.648e-07  alpha:  2.832e-01  linmin: -1.266e-06  t[s]:  65073.80
	FillingsUpdate:  mu: +0.231367121  nElectrons: 339.000000
	SubspaceRotationAdjust: set factor to 0.132
ElecMinimize: Iter:  19  F: -1819.884395153564355  |grad|_K:  6.102e-07  alpha:  2.909e-01  linmin:  3.259e-07  t[s]:  65541.83
	FillingsUpdate:  mu: +0.231271630  nElectrons: 339.000000
	SubspaceRotationAdjust: set factor to 0.153
ElecMinimize: Iter:  20  F: -1819.884405828552417  |grad|_K:  4.534e-07  alpha:  5.137e-01  linmin:  4.497e-06  t[s]:  66012.58
	FillingsUpdate:  mu: +0.231186355  nElectrons: 339.000000
	SubspaceRotationAdjust: set factor to 0.177
ElecMinimize: Iter:  21  F: -1819.884411163757250  |grad|_K:  3.110e-07  alpha:  4.651e-01  linmin:  1.531e-07  t[s]:  66483.72
	FillingsUpdate:  mu: +0.231147424  nElectrons: 339.000000
	SubspaceRotationAdjust: set factor to 0.209
ElecMinimize: Iter:  22  F: -1819.884413732911071  |grad|_K:  2.264e-07  alpha:  4.758e-01  linmin: -5.004e-07  t[s]:  66956.76
	FillingsUpdate:  mu: +0.231150188  nElectrons: 339.000000
	SubspaceRotationAdjust: set factor to 0.189
ElecMinimize: Iter:  23  F: -1819.884414979631174  |grad|_K:  2.142e-07  alpha:  4.359e-01  linmin: -2.919e-07  t[s]:  67426.55
	FillingsUpdate:  mu: +0.231147614  nElectrons: 339.000000
	SubspaceRotationAdjust: set factor to 0.139
ElecMinimize: Iter:  24  F: -1819.884415448998425  |grad|_K:  1.718e-07  alpha:  1.833e-01  linmin:  5.258e-07  t[s]:  67897.20
	FillingsUpdate:  mu: +0.231156007  nElectrons: 339.000000
	SubspaceRotationAdjust: set factor to 0.174
ElecMinimize: Iter:  25  F: -1819.884415973629530  |grad|_K:  1.082e-07  alpha:  3.183e-01  linmin: -5.175e-06  t[s]:  68370.55
	FillingsUpdate:  mu: +0.231168488  nElectrons: 339.000000
	SubspaceRotationAdjust: set factor to 0.203
ElecMinimize: Iter:  26  F: -1819.884416298059023  |grad|_K:  1.001e-07  alpha:  4.957e-01  linmin: -1.115e-05  t[s]:  68844.37
	FillingsUpdate:  mu: +0.231175597  nElectrons: 339.000000
	SubspaceRotationAdjust: set factor to 0.164
ElecMinimize: Iter:  27  F: -1819.884416440581845  |grad|_K:  1.010e-07  alpha:  2.549e-01  linmin: -8.119e-07  t[s]:  69314.07
	FillingsUpdate:  mu: +0.231190569  nElectrons: 339.000000
	SubspaceRotationAdjust: set factor to 0.145
ElecMinimize: Iter:  28  F: -1819.884416580928018  |grad|_K:  5.963e-08  alpha:  2.466e-01  linmin:  6.054e-06  t[s]:  69787.87
	FillingsUpdate:  mu: +0.231201873  nElectrons: 339.000000
	SubspaceRotationAdjust: set factor to 0.162
ElecMinimize: Iter:  29  F: -1819.884416681457651  |grad|_K:  4.381e-08  alpha:  5.100e-01  linmin:  4.311e-05  t[s]:  70263.30
	FillingsUpdate:  mu: +0.231207837  nElectrons: 339.000000
	SubspaceRotationAdjust: set factor to 0.182
ElecMinimize: Iter:  30  F: -1819.884416729835493  |grad|_K:  3.023e-08  alpha:  4.533e-01  linmin:  4.805e-06  t[s]:  70737.55
	FillingsUpdate:  mu: +0.231209277  nElectrons: 339.000000
	SubspaceRotationAdjust: set factor to 0.198
ElecMinimize: Iter:  31  F: -1819.884416752224070  |grad|_K:  2.386e-08  alpha:  4.363e-01  linmin: -3.258e-05  t[s]:  71212.18
	FillingsUpdate:  mu: +0.231208689  nElectrons: 339.000000
	SubspaceRotationAdjust: set factor to 0.154
ElecMinimize: Iter:  32  F: -1819.884416761117791  |grad|_K:  2.459e-08  alpha:  2.831e-01  linmin:  4.748e-06  t[s]:  71682.49
	FillingsUpdate:  mu: +0.231208683  nElectrons: 339.000000
	SubspaceRotationAdjust: set factor to 0.132
ElecMinimize: Iter:  33  F: -1819.884416768878509  |grad|_K:  1.563e-08  alpha:  2.316e-01  linmin:  1.829e-05  t[s]:  72151.19
ElecMinimize: Converged (|Delta F|<1.000000e-08 for 2 iters).
Setting wave functions to eigenvectors of Hamiltonian

# Ionic positions in lattice coordinates:
ion O   0.660883204018393   0.485962498977892   0.319709608269689 1
ion O   0.436658416182088   0.711493411146852   0.319977290550859 1
ion C   0.502569567484173   0.504554767454167   0.292308752947219 1
ion H   0.422920878918005   0.346789678603779   0.312175971709602 1
ion H   0.709015186718577   0.331138935709281   0.300473039801165 1
ion H   0.317373650388234   0.722078779315531   0.300446814904508 1
ion Pt   0.000000000000000   0.000000000000000  -0.166660000000000 0
ion Pt   0.000000000000000   0.500000000000000  -0.166660000000000 0
ion Pt   0.500000000000000   0.000000000000000  -0.166660000000000 0
ion Pt   0.500000000000000   0.500000000000000  -0.166660000000000 0
ion Pt   0.250000000000000   0.250000000000000  -0.083330000000000 0
ion Pt   0.250000000000000   0.750000000000000  -0.083330000000000 0
ion Pt   0.750000000000000   0.250000000000000  -0.083330000000000 0
ion Pt   0.750000000000000   0.750000000000000  -0.083330000000000 0
ion Pt   0.000030736019875  -0.000016275668986  -0.000560707448096 1
ion Pt  -0.000107314414996   0.499939834130168  -0.000367053631969 1
ion Pt   0.499917842070479   0.000095106684292  -0.000050865490205 1
ion Pt   0.499997390432239   0.500246426136366   0.000212136383264 1
ion Pt   0.249917983506161   0.250142494962981   0.086759619603029 1
ion Pt   0.249930237381494   0.749760141304096   0.086720982426254 1
ion Pt   0.750095250750226   0.250059073255112   0.086746175320557 1
ion Pt   0.750175139165504   0.749825901714077   0.086577511458111 1
ion Pt  -0.000017950665337   0.000000426093227   0.159947455074123 1
ion Pt   0.000137426424066   0.500089286041441   0.159861263028115 1
ion Pt   0.500339750161125  -0.000654284516910   0.159466929271528 1
ion Pt   0.499986572152665   0.498289108196449   0.167039138446050 1


# Forces in Lattice coordinates:
force O   0.335683803685221  -0.103486497554152  -0.046289478155387 1
force O  -0.256091593592408   0.158873410977196  -0.085436686504575 1
force C  -0.270829539043573  -0.219821235076872  -0.230048560923698 1
force H   0.051454606306050   0.062681432438152  -0.374035715216744 1
force H  -0.093382907399951   0.139528520658289   0.110249163546887 1
force H   0.226079182058931  -0.015003736102995   0.125190135749934 1
force Pt  -0.000016821831245   0.000142785250590   0.928889864515302 0
force Pt   0.000624747160363  -0.000134611094050   0.937513994498933 0
force Pt   0.000596927726142   0.001332839136466   0.959254710528572 0
force Pt  -0.000337219340322  -0.001591084477336   0.813647767999887 0
force Pt   0.015571410916643   0.005759842291314  -0.436794829570666 0
force Pt   0.014455991739110  -0.005599486091488  -0.439767541510854 0
force Pt  -0.016289272646346   0.005209528565505  -0.439739192925844 0
force Pt  -0.015170563687280  -0.005152510560961  -0.444944621476599 0
force Pt   0.001207233984418   0.000267925898550  -0.198385337361783 1
force Pt  -0.000297660011721  -0.000311647362368  -0.202910582418051 1
force Pt  -0.001313606105629   0.002071539373228  -0.188791599130064 1
force Pt  -0.000213844479371   0.000781612536883   0.017473070491192 1
force Pt   0.029093611956336   0.016030586733987   0.113405119123169 1
force Pt   0.033587700190620  -0.019305167038975   0.115497950275921 1
force Pt  -0.024454297478811   0.018029810613450   0.109291698381151 1
force Pt  -0.029815731329402  -0.021746541302485   0.105243372728298 1
force Pt  -0.000588873711958  -0.000282667375728  -0.366134873776991 1
force Pt  -0.000025066758873   0.000391676008983  -0.389034638190785 1
force Pt   0.003419033716675  -0.007137683736845  -0.379385427331326 1
force Pt  -0.003287384322557  -0.011284840605129  -0.094533391302684 1

# Energy components:
   Eewald =     2022.6099772786285484
       EH =     3706.5578612516997055
     Eloc =    -7870.8053742121819596
      Enl =      -15.9993239803973637
      Exc =     -575.5083951764916037
 Exc_core =      324.9916675742845769
       KE =      588.5245860214569120
-------------------------------------
     Etot =    -1819.6290012430008574
       TS =        0.2554155258777001
-------------------------------------
        F =    -1819.8844167688785092

IonicMinimize: Iter:   3  F: -1819.884416768878509  |grad|_K:  7.693e-03  alpha:  6.837e-01  linmin: -2.649e-01  t[s]:  72227.47

#--- Lowdin population analysis ---
# oxidation-state O -0.374 -0.374
# oxidation-state C +0.303
# oxidation-state H +0.202 +0.431 +0.430
# oxidation-state Pt +0.071 +0.071 +0.072 +0.067 -0.051 -0.051 -0.051 -0.051 +0.005 +0.001 +0.001 -0.020 -0.049 -0.059 -0.058 -0.045 +0.012 +0.006 -0.000 -0.079


-------- Electronic minimization -----------
	FillingsUpdate:  mu: +0.204939623  nElectrons: 339.000000
ElecMinimize: Iter:   0  F: -1818.417638013815349  |grad|_K:  2.639e-04  alpha:  1.000e+00
	FillingsUpdate:  mu: +0.256688206  nElectrons: 339.000000
	SubspaceRotationAdjust: set factor to 0.118
ElecMinimize: Iter:   1  F: -1819.684737986069194  |grad|_K:  8.554e-05  alpha:  3.396e-01  linmin:  1.077e-02  t[s]:  73054.52
	FillingsUpdate:  mu: +0.249983611  nElectrons: 339.000000
	SubspaceRotationAdjust: set factor to 0.0768
ElecMinimize: Iter:   2  F: -1819.781077329111895  |grad|_K:  4.948e-05  alpha:  2.462e-01  linmin: -2.407e-04  t[s]:  73526.68
	FillingsUpdate:  mu: +0.230549603  nElectrons: 339.000000
	SubspaceRotationAdjust: set factor to 0.0745
ElecMinimize: Iter:   3  F: -1819.813557502329104  |grad|_K:  2.117e-05  alpha:  2.371e-01  linmin: -7.905e-06  t[s]:  73997.17
	FillingsUpdate:  mu: +0.233117025  nElectrons: 339.000000
	SubspaceRotationAdjust: set factor to 0.0854
ElecMinimize: Iter:   4  F: -1819.825691483534229  |grad|_K:  1.715e-05  alpha:  4.851e-01  linmin:  3.693e-05  t[s]:  74469.95
	FillingsUpdate:  mu: +0.236950602  nElectrons: 339.000000
	SubspaceRotationAdjust: set factor to 0.0816
ElecMinimize: Iter:   5  F: -1819.836944398549804  |grad|_K:  2.047e-05  alpha:  6.795e-01  linmin: -3.550e-04  t[s]:  74936.14
	FillingsUpdate:  mu: +0.233082171  nElectrons: 339.000000
	SubspaceRotationAdjust: set factor to 0.0787
ElecMinimize: Iter:   6  F: -1819.849369152077543  |grad|_K:  1.837e-05  alpha:  5.102e-01  linmin:  6.727e-05  t[s]:  75405.20
	FillingsUpdate:  mu: +0.230852077  nElectrons: 339.000000
	SubspaceRotationAdjust: set factor to 0.091
ElecMinimize: Iter:   7  F: -1819.863604503169199  |grad|_K:  2.051e-05  alpha:  7.590e-01  linmin: -3.679e-05  t[s]:  75877.94
	FillingsUpdate:  mu: +0.230969160  nElectrons: 339.000000
	SubspaceRotationAdjust: set factor to 0.0845
ElecMinimize: Iter:   8  F: -1819.878102148573362  |grad|_K:  1.635e-05  alpha:  6.225e-01  linmin: -1.404e-04  t[s]:  76353.46
	FillingsUpdate:  mu: +0.231724845  nElectrons: 339.000000
	SubspaceRotationAdjust: set factor to 0.0631
ElecMinimize: Iter:   9  F: -1819.883871605678905  |grad|_K:  1.102e-05  alpha:  3.677e-01  linmin: -1.070e-04  t[s]:  76829.40
	FillingsUpdate:  mu: +0.230579920  nElectrons: 339.000000
	SubspaceRotationAdjust: set factor to 0.0618
ElecMinimize: Iter:  10  F: -1819.886551452078720  |grad|_K:  6.562e-06  alpha:  3.912e-01  linmin: -9.352e-05  t[s]:  77307.83
	FillingsUpdate:  mu: +0.230554711  nElectrons: 339.000000
	SubspaceRotationAdjust: set factor to 0.0691
ElecMinimize: Iter:  11  F: -1819.887593543830917  |grad|_K:  3.851e-06  alpha:  4.304e-01  linmin: -1.742e-05  t[s]:  77775.50
	FillingsUpdate:  mu: +0.230900162  nElectrons: 339.000000
	SubspaceRotationAdjust: set factor to 0.0659
ElecMinimize: Iter:  12  F: -1819.887925635966440  |grad|_K:  2.396e-06  alpha:  4.009e-01  linmin:  2.044e-05  t[s]:  78243.86
	FillingsUpdate:  mu: +0.231179442  nElectrons: 339.000000
	SubspaceRotationAdjust: set factor to 0.0791
ElecMinimize: Iter:  13  F: -1819.888064126764903  |grad|_K:  1.650e-06  alpha:  4.324e-01  linmin: -1.177e-05  t[s]:  78716.56
	FillingsUpdate:  mu: +0.231388521  nElectrons: 339.000000
	SubspaceRotationAdjust: set factor to 0.1
ElecMinimize: Iter:  14  F: -1819.888145470030395  |grad|_K:  1.319e-06  alpha:  5.353e-01  linmin: -9.156e-07  t[s]:  79188.68
	FillingsUpdate:  mu: +0.231608627  nElectrons: 339.000000
	SubspaceRotationAdjust: set factor to 0.109
ElecMinimize: Iter:  15  F: -1819.888198764813069  |grad|_K:  1.259e-06  alpha:  5.485e-01  linmin:  1.084e-05  t[s]:  79661.43
	FillingsUpdate:  mu: +0.231766040  nElectrons: 339.000000
	SubspaceRotationAdjust: set factor to 0.102
ElecMinimize: Iter:  16  F: -1819.888237100590004  |grad|_K:  1.119e-06  alpha:  4.336e-01  linmin: -3.654e-06  t[s]:  80135.43
	FillingsUpdate:  mu: +0.231962590  nElectrons: 339.000000
	SubspaceRotationAdjust: set factor to 0.105
ElecMinimize: Iter:  17  F: -1819.888272503784265  |grad|_K:  8.902e-07  alpha:  5.063e-01  linmin:  9.400e-06  t[s]:  80606.16
	FillingsUpdate:  mu: +0.232023812  nElectrons: 339.000000
	SubspaceRotationAdjust: set factor to 0.127
ElecMinimize: Iter:  18  F: -1819.888296894601581  |grad|_K:  7.246e-07  alpha:  5.517e-01  linmin: -1.224e-06  t[s]:  81081.96
	FillingsUpdate:  mu: +0.231954095  nElectrons: 339.000000
	SubspaceRotationAdjust: set factor to 0.159
ElecMinimize: Iter:  19  F: -1819.888312932695499  |grad|_K:  6.290e-07  alpha:  5.472e-01  linmin:  7.620e-07  t[s]:  81558.35
	FillingsUpdate:  mu: +0.231818264  nElectrons: 339.000000
	SubspaceRotationAdjust: set factor to 0.173
ElecMinimize: Iter:  20  F: -1819.888324879247648  |grad|_K:  5.891e-07  alpha:  5.411e-01  linmin:  4.065e-06  t[s]:  82030.35
	FillingsUpdate:  mu: +0.231718794  nElectrons: 339.000000
	SubspaceRotationAdjust: set factor to 0.134
ElecMinimize: Iter:  21  F: -1819.888330308642708  |grad|_K:  5.344e-07  alpha:  2.804e-01  linmin:  1.652e-06  t[s]:  82511.01
	FillingsUpdate:  mu: +0.231652898  nElectrons: 339.000000
	SubspaceRotationAdjust: set factor to 0.106
ElecMinimize: Iter:  22  F: -1819.888334738475578  |grad|_K:  3.349e-07  alpha:  2.779e-01  linmin:  3.327e-06  t[s]:  82981.28
	FillingsUpdate:  mu: +0.231603251  nElectrons: 339.000000
	SubspaceRotationAdjust: set factor to 0.114
ElecMinimize: Iter:  23  F: -1819.888337558310695  |grad|_K:  2.269e-07  alpha:  4.506e-01  linmin: -8.272e-07  t[s]:  83454.47
	FillingsUpdate:  mu: +0.231595520  nElectrons: 339.000000
	SubspaceRotationAdjust: set factor to 0.127
ElecMinimize: Iter:  24  F: -1819.888338837144147  |grad|_K:  1.453e-07  alpha:  4.452e-01  linmin: -5.519e-07  t[s]:  83928.55
	FillingsUpdate:  mu: +0.231609521  nElectrons: 339.000000
	SubspaceRotationAdjust: set factor to 0.143
ElecMinimize: Iter:  25  F: -1819.888339373938834  |grad|_K:  1.093e-07  alpha:  4.557e-01  linmin:  2.469e-06  t[s]:  84404.21
	FillingsUpdate:  mu: +0.231616090  nElectrons: 339.000000
	SubspaceRotationAdjust: set factor to 0.137
ElecMinimize: Iter:  26  F: -1819.888339648261535  |grad|_K:  9.923e-08  alpha:  4.116e-01  linmin:  4.835e-06  t[s]:  84875.81
	FillingsUpdate:  mu: +0.231626763  nElectrons: 339.000000
	SubspaceRotationAdjust: set factor to 0.116
ElecMinimize: Iter:  27  F: -1819.888339805776468  |grad|_K:  7.260e-08  alpha:  2.866e-01  linmin:  1.975e-06  t[s]:  85353.14
	FillingsUpdate:  mu: +0.231638839  nElectrons: 339.000000
	SubspaceRotationAdjust: set factor to 0.124
ElecMinimize: Iter:  28  F: -1819.888339929431822  |grad|_K:  5.737e-08  alpha:  4.200e-01  linmin: -2.263e-05  t[s]:  85821.85
	FillingsUpdate:  mu: +0.231652976  nElectrons: 339.000000
	SubspaceRotationAdjust: set factor to 0.143
ElecMinimize: Iter:  29  F: -1819.888340026592687  |grad|_K:  4.498e-08  alpha:  5.287e-01  linmin:  1.649e-05  t[s]:  86300.74
	FillingsUpdate:  mu: +0.231659010  nElectrons: 339.000000
	SubspaceRotationAdjust: set factor to 0.161
ElecMinimize: Iter:  30  F: -1819.888340084340143  |grad|_K:  3.469e-08  alpha:  5.118e-01  linmin:  1.007e-05  t[s]:  86777.39
	FillingsUpdate:  mu: +0.231662169  nElectrons: 339.000000
	SubspaceRotationAdjust: set factor to 0.151
ElecMinimize: Iter:  31  F: -1819.888340113990353  |grad|_K:  3.242e-08  alpha:  4.421e-01  linmin: -8.334e-06  t[s]:  87244.79
	FillingsUpdate:  mu: +0.231664973  nElectrons: 339.000000
	SubspaceRotationAdjust: set factor to 0.109
[...]
	SubspaceRotationAdjust: set factor to 0.137
ElecMinimize: Iter:  32  F: -1819.893506225511373  |grad|_K:  2.258e-08  alpha:  4.634e-01  linmin: -5.683e-06  t[s]: 136355.77
	FillingsUpdate:  mu: +0.232218792  nElectrons: 339.000000
	SubspaceRotationAdjust: set factor to 0.128
ElecMinimize: Iter:  33  F: -1819.893506237960310  |grad|_K:  1.967e-08  alpha:  4.397e-01  linmin:  1.446e-04  t[s]: 136830.82
	FillingsUpdate:  mu: +0.232219685  nElectrons: 339.000000
	SubspaceRotationAdjust: set factor to 0.0958
ElecMinimize: Iter:  34  F: -1819.893506244220134  |grad|_K:  1.456e-08  alpha:  2.941e-01  linmin: -1.248e-05  t[s]: 137308.28
	FillingsUpdate:  mu: +0.232219281  nElectrons: 339.000000
	SubspaceRotationAdjust: set factor to 0.102
ElecMinimize: Iter:  35  F: -1819.893506248384938  |grad|_K:  8.716e-09  alpha:  3.511e-01  linmin:  4.193e-05  t[s]: 137779.79
ElecMinimize: Converged (|Delta F|<1.000000e-08 for 2 iters).
Setting wave functions to eigenvectors of Hamiltonian

# Ionic positions in lattice coordinates:
ion O   0.662622419378741   0.487516873694842   0.317591916464772 1
ion O   0.436233515072317   0.714010542066762   0.317663597094496 1
ion C   0.500231176950511   0.502026751065411   0.289768254526175 1
ion H   0.421821757134480   0.346632379921515   0.306623103913665 1
ion H   0.708847939136161   0.334157651691012   0.300072682941345 1
ion H   0.318930356828870   0.723153826040935   0.300133901595658 1
ion Pt   0.000000000000000   0.000000000000000  -0.166660000000000 0
ion Pt   0.000000000000000   0.500000000000000  -0.166660000000000 0
ion Pt   0.500000000000000   0.000000000000000  -0.166660000000000 0
ion Pt   0.500000000000000   0.500000000000000  -0.166660000000000 0
ion Pt   0.250000000000000   0.250000000000000  -0.083330000000000 0
ion Pt   0.250000000000000   0.750000000000000  -0.083330000000000 0
ion Pt   0.750000000000000   0.250000000000000  -0.083330000000000 0
ion Pt   0.750000000000000   0.750000000000000  -0.083330000000000 0
ion Pt   0.000199827028104  -0.000001877038824  -0.005334544631060 1
ion Pt  -0.000087462429709   0.499928187668483  -0.005691539599008 1
ion Pt   0.499855559535967   0.000506413226605  -0.005316932728907 1
ion Pt   0.500000626299626   0.500429894001931   0.000212276541432 1
ion Pt   0.252780731079985   0.252697602877835   0.088129511127617 1
ion Pt   0.253160313193736   0.746185771266490   0.088153630956638 1
ion Pt   0.747639788340278   0.252939008792754   0.087985200407122 1
ion Pt   0.747293722149635   0.745864624434517   0.087727102883842 1
ion Pt  -0.000071106233726  -0.000261506234482   0.152499856369669 1
ion Pt   0.000032137865441   0.500195249525640   0.152397629953600 1
ion Pt   0.500588520109537  -0.002289286698021   0.153099106399236 1
ion Pt   0.499840832301048   0.496105813376057   0.165678788252746 1


# Forces in Lattice coordinates:
force O  -0.100150606312225   0.040411437271525  -0.039748895975542 1
force O   0.098319988613635  -0.017203411411548   0.019872440401628 1
force C   0.109001296590395   0.056266070370246  -0.128145572430181 1
force H  -0.037208685237261  -0.034570750063282  -0.056516904669688 1
force H   0.024679270430998  -0.039204380560896  -0.077201310744104 1
force H  -0.104352633045989   0.007825314979799  -0.101444601579923 1
force Pt  -0.000395889432255  -0.000057149907677   0.780184834514521 0
force Pt   0.000479474889023  -0.000283925316865   0.777211051382692 0
force Pt   0.000871069504215   0.001222941654426   0.806752211650413 0
force Pt  -0.000403001043718  -0.001649799258284   0.801528294236083 0
force Pt   0.046349156202289   0.018824099891327  -0.508956833553403 0
force Pt   0.045363812397513  -0.017644421704451  -0.510083508485146 0
force Pt  -0.047126390563676   0.017006455492355  -0.514409536219512 0
force Pt  -0.046027260687064  -0.015805851999881  -0.517348065239847 0
force Pt   0.000313318703107  -0.000524272754285   0.035248948638921 1
force Pt   0.002087175732246   0.000435677974809   0.032874943270305 1
force Pt   0.001479693784551  -0.001012350659654   0.052229135995151 1
force Pt  -0.000492601337743  -0.000772718677431  -0.075514240908186 1
force Pt  -0.011148787759048  -0.017817919061909  -0.128550577778633 1
force Pt  -0.012598500353878   0.011273643498905  -0.125249045480559 1
force Pt   0.008823598484700  -0.019651764694894  -0.132908384371183 1
force Pt   0.010099644186803   0.013216845406005  -0.129287645606497 1
force Pt  -0.000396730207469  -0.003137814740908  -0.118500257461960 1
force Pt   0.001807906344486  -0.001308900678432  -0.091710292533139 1
force Pt   0.003404356627339   0.001295242645658  -0.039834692087500 1
force Pt   0.007016448442908   0.003019067038823  -0.009326023090296 1

# Energy components:
   Eewald =     2076.0354120541701377
       EH =     3759.6931478643182345
     Eloc =    -7977.4870708117614413
      Enl =      -15.9114779515372931
      Exc =     -575.6488125009892656
 Exc_core =      324.9916721638298327
       KE =      588.6836759926521836
-------------------------------------
     Etot =    -1819.6434531893169151
       TS =        0.2500530590680464
-------------------------------------
        F =    -1819.8935062483849379

IonicMinimize: Iter:   7  F: -1819.893506248384938  |grad|_K:  2.773e-03  alpha:  1.000e+00  linmin: -4.077e-02  t[s]: 137854.98

#--- Lowdin population analysis ---
# oxidation-state O -0.392 -0.389
# oxidation-state C +0.285
# oxidation-state H +0.215 +0.433 +0.433
# oxidation-state Pt +0.072 +0.072 +0.072 +0.064 -0.050 -0.049 -0.049 -0.049 +0.006 +0.000 -0.000 -0.022 -0.049 -0.058 -0.057 -0.043 +0.015 +0.013 +0.006 -0.061


-------- Electronic minimization -----------
	FillingsUpdate:  mu: +0.244050267  nElectrons: 339.000000
ElecMinimize: Iter:   0  F: -1819.228345664688959  |grad|_K:  1.957e-04  alpha:  1.000e+00
	FillingsUpdate:  mu: +0.267470867  nElectrons: 339.000000
	SubspaceRotationAdjust: set factor to 0.0581
ElecMinimize: Iter:   1  F: -1819.754425101840980  |grad|_K:  8.106e-05  alpha:  2.472e-01  linmin:  1.780e-03  t[s]: 138690.73
	FillingsUpdate:  mu: +0.239723273  nElectrons: 339.000000
	SubspaceRotationAdjust: set factor to 0.0407
ElecMinimize: Iter:   2  F: -1819.842603987081930  |grad|_K:  2.788e-05  alpha:  2.419e-01  linmin:  3.981e-04  t[s]: 139163.78
	FillingsUpdate:  mu: +0.233626539  nElectrons: 339.000000
	SubspaceRotationAdjust: set factor to 0.0585
ElecMinimize: Iter:   3  F: -1819.859031051640386  |grad|_K:  1.212e-05  alpha:  3.795e-01  linmin: -3.491e-06  t[s]: 139630.42
	FillingsUpdate:  mu: +0.232820118  nElectrons: 339.000000
	SubspaceRotationAdjust: set factor to 0.0597
ElecMinimize: Iter:   4  F: -1819.862953038612204  |grad|_K:  9.391e-06  alpha:  4.780e-01  linmin:  1.692e-05  t[s]: 140098.43
	FillingsUpdate:  mu: +0.232656286  nElectrons: 339.000000
	SubspaceRotationAdjust: set factor to 0.0737
ElecMinimize: Iter:   5  F: -1819.867671325167748  |grad|_K:  1.094e-05  alpha:  9.555e-01  linmin: -9.662e-05  t[s]: 140569.98
	FillingsUpdate:  mu: +0.231033209  nElectrons: 339.000000
	SubspaceRotationAdjust: set factor to 0.0855
ElecMinimize: Iter:   6  F: -1819.873108443243837  |grad|_K:  1.254e-05  alpha:  8.076e-01  linmin:  3.708e-06  t[s]: 141038.37
	FillingsUpdate:  mu: +0.231078659  nElectrons: 339.000000
	SubspaceRotationAdjust: set factor to 0.0929
ElecMinimize: Iter:   7  F: -1819.880798741499120  |grad|_K:  1.472e-05  alpha:  8.761e-01  linmin: -7.097e-06  t[s]: 141511.04
	FillingsUpdate:  mu: +0.232237704  nElectrons: 339.000000
	SubspaceRotationAdjust: set factor to 0.0987
ElecMinimize: Iter:   8  F: -1819.888581938457037  |grad|_K:  1.102e-05  alpha:  6.423e-01  linmin: -4.729e-06  t[s]: 141981.66
	FillingsUpdate:  mu: +0.231482259  nElectrons: 339.000000
	SubspaceRotationAdjust: set factor to 0.101
ElecMinimize: Iter:   9  F: -1819.891932904459736  |grad|_K:  7.475e-06  alpha:  4.934e-01  linmin:  1.003e-05  t[s]: 142457.59
	FillingsUpdate:  mu: +0.231776110  nElectrons: 339.000000
	SubspaceRotationAdjust: set factor to 0.108
ElecMinimize: Iter:  10  F: -1819.893378210645551  |grad|_K:  4.691e-06  alpha:  4.640e-01  linmin: -1.826e-05  t[s]: 142932.66
	FillingsUpdate:  mu: +0.232682137  nElectrons: 339.000000
	SubspaceRotationAdjust: set factor to 0.107
ElecMinimize: Iter:  11  F: -1819.893864322614036  |grad|_K:  3.074e-06  alpha:  3.953e-01  linmin:  1.124e-05  t[s]: 143400.95
	FillingsUpdate:  mu: +0.232929066  nElectrons: 339.000000
	SubspaceRotationAdjust: set factor to 0.0925
ElecMinimize: Iter:  12  F: -1819.894057251123286  |grad|_K:  2.053e-06  alpha:  3.659e-01  linmin:  4.602e-06  t[s]: 143871.44
	FillingsUpdate:  mu: +0.232951191  nElectrons: 339.000000
	SubspaceRotationAdjust: set factor to 0.0897
ElecMinimize: Iter:  13  F: -1819.894152025692620  |grad|_K:  1.422e-06  alpha:  4.027e-01  linmin:  3.091e-05  t[s]: 144347.76
	FillingsUpdate:  mu: +0.232857093  nElectrons: 339.000000
	SubspaceRotationAdjust: set factor to 0.117
ElecMinimize: Iter:  14  F: -1819.894206303903729  |grad|_K:  9.884e-07  alpha:  4.814e-01  linmin:  7.678e-07  t[s]: 144821.00
	FillingsUpdate:  mu: +0.232798184  nElectrons: 339.000000
	SubspaceRotationAdjust: set factor to 0.149
ElecMinimize: Iter:  15  F: -1819.894238124232970  |grad|_K:  8.834e-07  alpha:  5.835e-01  linmin:  2.303e-07  t[s]: 145295.53
	FillingsUpdate:  mu: +0.232685946  nElectrons: 339.000000
	SubspaceRotationAdjust: set factor to 0.161
ElecMinimize: Iter:  16  F: -1819.894264067702125  |grad|_K:  9.749e-07  alpha:  5.956e-01  linmin:  4.839e-06  t[s]: 145765.98
	FillingsUpdate:  mu: +0.232527699  nElectrons: 339.000000
	SubspaceRotationAdjust: set factor to 0.137
ElecMinimize: Iter:  17  F: -1819.894282398470750  |grad|_K:  9.874e-07  alpha:  3.458e-01  linmin:  1.182e-06  t[s]: 146237.12
	FillingsUpdate:  mu: +0.232417468  nElectrons: 339.000000
	SubspaceRotationAdjust: set factor to 0.125
ElecMinimize: Iter:  18  F: -1819.894301581099626  |grad|_K:  7.236e-07  alpha:  3.526e-01  linmin:  5.144e-06  t[s]: 146715.90
	FillingsUpdate:  mu: +0.232339838  nElectrons: 339.000000
	SubspaceRotationAdjust: set factor to 0.132
ElecMinimize: Iter:  19  F: -1819.894316048645578  |grad|_K:  5.448e-07  alpha:  4.952e-01  linmin: -2.393e-06  t[s]: 147184.16
	FillingsUpdate:  mu: +0.232296711  nElectrons: 339.000000
	SubspaceRotationAdjust: set factor to 0.145
ElecMinimize: Iter:  20  F: -1819.894324472924382  |grad|_K:  3.952e-07  alpha:  5.083e-01  linmin:  1.230e-06  t[s]: 147658.46
	FillingsUpdate:  mu: +0.232309170  nElectrons: 339.000000
	SubspaceRotationAdjust: set factor to 0.159
ElecMinimize: Iter:  21  F: -1819.894328279245656  |grad|_K:  3.107e-07  alpha:  4.367e-01  linmin: -1.399e-06  t[s]: 148130.93
	FillingsUpdate:  mu: +0.232362989  nElectrons: 339.000000
	SubspaceRotationAdjust: set factor to 0.142
ElecMinimize: Iter:  22  F: -1819.894330104374831  |grad|_K:  2.891e-07  alpha:  3.386e-01  linmin:  6.665e-07  t[s]: 148602.29
	FillingsUpdate:  mu: +0.232407574  nElectrons: 339.000000
	SubspaceRotationAdjust: set factor to 0.14
ElecMinimize: Iter:  23  F: -1819.894331565760695  |grad|_K:  2.119e-07  alpha:  3.132e-01  linmin: -5.749e-07  t[s]: 149075.40
	FillingsUpdate:  mu: +0.232449470  nElectrons: 339.000000
	SubspaceRotationAdjust: set factor to 0.157
ElecMinimize: Iter:  24  F: -1819.894332733256078  |grad|_K:  1.643e-07  alpha:  4.656e-01  linmin: -3.059e-06  t[s]: 149551.41
	FillingsUpdate:  mu: +0.232475774  nElectrons: 339.000000
	SubspaceRotationAdjust: set factor to 0.166
ElecMinimize: Iter:  25  F: -1819.894333518636131  |grad|_K:  1.447e-07  alpha:  5.210e-01  linmin:  1.063e-06  t[s]: 150026.61
	FillingsUpdate:  mu: +0.232502913  nElectrons: 339.000000
	SubspaceRotationAdjust: set factor to 0.144
ElecMinimize: Iter:  26  F: -1819.894333969050649  |grad|_K:  1.390e-07  alpha:  3.853e-01  linmin: -1.949e-06  t[s]: 150503.27
	FillingsUpdate:  mu: +0.232511838  nElectrons: 339.000000
	SubspaceRotationAdjust: set factor to 0.113
ElecMinimize: Iter:  27  F: -1819.894334237191970  |grad|_K:  9.550e-08  alpha:  2.487e-01  linmin:  6.123e-07  t[s]: 150977.17
	FillingsUpdate:  mu: +0.232517660  nElectrons: 339.000000
	SubspaceRotationAdjust: set factor to 0.126
ElecMinimize: Iter:  28  F: -1819.894334454894079  |grad|_K:  6.470e-08  alpha:  4.282e-01  linmin:  4.741e-05  t[s]: 151450.52
	FillingsUpdate:  mu: +0.232516459  nElectrons: 339.000000
	SubspaceRotationAdjust: set factor to 0.156
ElecMinimize: Iter:  29  F: -1819.894334570603860  |grad|_K:  4.730e-08  alpha:  4.967e-01  linmin:  1.267e-05  t[s]: 151925.09
	FillingsUpdate:  mu: +0.232512087  nElectrons: 339.000000
	SubspaceRotationAdjust: set factor to 0.175
ElecMinimize: Iter:  30  F: -1819.894334630464073  |grad|_K:  4.068e-08  alpha:  4.802e-01  linmin:  5.972e-05  t[s]: 152395.62
	FillingsUpdate:  mu: +0.232508562  nElectrons: 339.000000
	SubspaceRotationAdjust: set factor to 0.152
ElecMinimize: Iter:  31  F: -1819.894334661487164  |grad|_K:  4.186e-08  alpha:  3.368e-01  linmin: -1.632e-05  t[s]: 152871.47
	FillingsUpdate:  mu: +0.232500768  nElectrons: 339.000000
	SubspaceRotationAdjust: set factor to 0.141
ElecMinimize: Iter:  32  F: -1819.894334689416155  |grad|_K:  3.069e-08  alpha:  2.855e-01  linmin:  3.936e-05  t[s]: 153346.21
	FillingsUpdate:  mu: +0.232493188  nElectrons: 339.000000
	SubspaceRotationAdjust: set factor to 0.171
ElecMinimize: Iter:  33  F: -1819.894334715070499  |grad|_K:  2.425e-08  alpha:  4.911e-01  linmin:  5.494e-05  t[s]: 153822.95
	FillingsUpdate:  mu: +0.232488997  nElectrons: 339.000000
	SubspaceRotationAdjust: set factor to 0.207
ElecMinimize: Iter:  34  F: -1819.894334733131700  |grad|_K:  2.075e-08  alpha:  5.539e-01  linmin: -7.309e-05  t[s]: 154293.77
	FillingsUpdate:  mu: +0.232488002  nElectrons: 339.000000
	SubspaceRotationAdjust: set factor to 0.251
ElecMinimize: Iter:  35  F: -1819.894334746196591  |grad|_K:  1.664e-08  alpha:  5.456e-01  linmin:  1.050e-04  t[s]: 154770.25
	FillingsUpdate:  mu: +0.232487281  nElectrons: 339.000000
	SubspaceRotationAdjust: set factor to 0.282
ElecMinimize: Iter:  36  F: -1819.894334753278144  |grad|_K:  1.377e-08  alpha:  4.719e-01  linmin:  1.518e-04  t[s]: 155241.05
	FillingsUpdate:  mu: +0.232487684  nElectrons: 339.000000
	SubspaceRotationAdjust: set factor to 0.213
ElecMinimize: Iter:  37  F: -1819.894334755854743  |grad|_K:  1.583e-08  alpha:  2.392e-01  linmin:  5.487e-05  t[s]: 155709.87
ElecMinimize: Converged (|Delta F|<1.000000e-08 for 2 iters).
Setting wave functions to eigenvectors of Hamiltonian

# Ionic positions in lattice coordinates:
ion O   0.661960030877695   0.488795342530408   0.316966301171395 1
ion O   0.436019965825447   0.715044757807976   0.317048877583013 1
ion C   0.501186153436833   0.502098765538374   0.288567957312581 1
ion H   0.421445251979208   0.346477365966387   0.304767497990624 1
ion H   0.709526866236885   0.333036393885522   0.299574831734052 1
ion H   0.318120879443086   0.723955083007935   0.299736777183624 1
ion Pt   0.000000000000000   0.000000000000000  -0.166660000000000 0
ion Pt   0.000000000000000   0.500000000000000  -0.166660000000000 0
ion Pt   0.500000000000000   0.000000000000000  -0.166660000000000 0
ion Pt   0.500000000000000   0.500000000000000  -0.166660000000000 0
ion Pt   0.250000000000000   0.250000000000000  -0.083330000000000 0
ion Pt   0.250000000000000   0.750000000000000  -0.083330000000000 0
ion Pt   0.750000000000000   0.250000000000000  -0.083330000000000 0
ion Pt   0.750000000000000   0.750000000000000  -0.083330000000000 0
ion Pt   0.000250102144249  -0.000025663807685  -0.006460311536189 1
ion Pt  -0.000005530256224   0.499960440524986  -0.007052081420455 1
ion Pt   0.499892823557288   0.000559122065540  -0.006615095885818 1
ion Pt   0.499988315680651   0.500393806516531  -0.000287223664842 1
ion Pt   0.253348979930112   0.252455577195083   0.087145225075281 1
ion Pt   0.253792509144274   0.745771794300210   0.087225843966650 1
ion Pt   0.747124454726963   0.252717215035125   0.086948190079368 1
ion Pt   0.746673610372957   0.745421404354915   0.086709901812787 1
ion Pt  -0.000093810063579  -0.000514714574628   0.150776767616673 1
ion Pt   0.000029822074917   0.500143607041962   0.150868327452771 1
ion Pt   0.500696307763534  -0.002568997171851   0.152291367322784 1
ion Pt   0.500014708120352   0.495982999755176   0.165128558908128 1


# Forces in Lattice coordinates:
force O   0.053364864885324  -0.103167600773983  -0.122950944069569 1
force O   0.079736725116287  -0.060345806407870  -0.073390713886088 1
force C  -0.027770890513518   0.099325438784809  -0.050509279749178 1
force H  -0.013286412468520  -0.016275032219862  -0.050038569781123 1
force H  -0.051753126998181   0.091427056120096   0.050501000708223 1
force H  -0.052083448627220  -0.000550789062571  -0.082016230540698 1
force Pt  -0.000480237737092  -0.000079213335609   0.731875977794113 0
force Pt   0.000276761190258  -0.000346338202980   0.717694839032785 0
force Pt   0.000844890271366   0.001030778096978   0.749453214267582 0
force Pt  -0.000300797870431  -0.001524244956468   0.778264051922648 0
force Pt   0.052635959151140   0.020829508017488  -0.555628213570486 0
force Pt   0.052205369803692  -0.019462985696168  -0.554451005749629 0
force Pt  -0.052218515803979   0.019125643578139  -0.560827807323619 0
force Pt  -0.051703793798944  -0.017744006364655  -0.564419100347741 0
force Pt  -0.000662973324834  -0.000522374524328   0.079608108449651 1
force Pt   0.001192262395148  -0.000160257323734   0.120933958890220 1
force Pt   0.000477240785848  -0.002120566927993   0.158285163695325 1
force Pt  -0.001108622867258  -0.001349017744752  -0.071539549835639 1
force Pt  -0.015412290441700  -0.017404858845519  -0.101559306449524 1
force Pt  -0.018534911041917   0.013050028689871  -0.103286291200037 1
force Pt   0.014291213296501  -0.019184620639096  -0.106064432578777 1
force Pt   0.017886890984867   0.014732774179284  -0.103635513260493 1
force Pt  -0.000413033070646  -0.003167089407930  -0.072412200910277 1
force Pt   0.001710424857330  -0.003226274908363  -0.079213501925609 1
force Pt   0.001618355554341   0.001437620435037  -0.045945186606275 1
force Pt   0.009160038765356   0.005714415287868  -0.054153448823443 1

# Energy components:
   Eewald =     2094.6146686666288588
       EH =     3778.2303621713163011
     Eloc =    -8014.6234364672000083
      Enl =      -15.8985762091943847
      Exc =     -575.6745771624935060
 Exc_core =      324.9916757498996276
       KE =      588.7146935551237448
-------------------------------------
     Etot =    -1819.6451896959197256
       TS =        0.2491450599349656
-------------------------------------
        F =    -1819.8943347558547430

IonicMinimize: Iter:   8  F: -1819.894334755854743  |grad|_K:  3.095e-03  alpha:  1.000e+00  linmin: -1.954e-02  t[s]: 155786.65
IonicMinimize: None of the convergence criteria satisfied after 8 iterations.

#--- Lowdin population analysis ---
# oxidation-state O -0.384 -0.394
# oxidation-state C +0.286
# oxidation-state H +0.214 +0.431 +0.431
# oxidation-state Pt +0.071 +0.072 +0.072 +0.063 -0.050 -0.049 -0.049 -0.049 +0.007 +0.001 +0.000 -0.023 -0.049 -0.057 -0.057 -0.043 +0.015 +0.013 +0.006 -0.060


Dumping '100_1-Vacuum.fillings' ... done
Dumping '100_1-Vacuum.wfns' ... done
Dumping '100_1-Vacuum.ionpos' ... done
Dumping '100_1-Vacuum.n' ... done
Dumping '100_1-Vacuum.eigenvals' ... done
Dumping '100_1-Vacuum.eigStats' ... 
	eMin: -1.713040 at state 0 ( [ +0.000000 +0.000000 +0.000000 ] spin 0 )
	HOMO: +0.232244 at state 4 ( [ +0.250000 +0.250000 +0.000000 ] spin 0 )
	mu  : +0.232488
	LUMO: +0.232753 at state 1 ( [ +0.000000 +0.250000 +0.000000 ] spin 0 )
	eMax: +0.743095 at state 9 ( [ +0.500000 +0.500000 +0.000000 ] spin 0 )
	HOMO-LUMO gap: +0.000508
	Optical gap  : +0.000700 at state 0 ( [ +0.000000 +0.000000 +0.000000 ] spin 0 )
Dumping '100_1-Vacuum.Ecomponents' ... done
End date and time: Sat Jun  1 09:13:58 2019  (Duration: 1-19:17:41.58)
Done!
