--------------------------------------------------------------------------
Initialization of PSM library failed.

  Error: PSM is in the finalized state
--------------------------------------------------------------------------
[node2011][[15188,1],0][btl_openib.c:880:mca_btl_openib_add_procs] could not prepare openib device for use
--------------------------------------------------------------------------
The OpenFabrics (openib) BTL failed to initialize while trying to
allocate some locked memory.  This typically can indicate that the
memlock limits are set too low.  For most HPC installations, the
memlock limits should be set to "unlimited".  The failure occured
here:

  Local host:    node2011
  OMPI source:   btl_openib.c:753
  Function:      ompi_free_list_init_ex_new()
  Device:        qib0
  Memlock limit: 65536

You may need to consult with your system administrator to get this
problem fixed.  This FAQ entry on the Open MPI web site may also be
helpful:

    http://www.open-mpi.org/faq/?category=openfabrics#ib-locked-pages
--------------------------------------------------------------------------

*************** JDFTx 1.4.2 (git hash 74b6e54) ***************

Start date and time: Thu May 30 13:56:17 2019
Executable /home/jfm343/JDFTXDIR/build/jdftx with command-line: -i Vacuum.in
Running on hosts (process indices):  node2011.physics.cornell.edu (0)
Divided in process groups (process indices):  0 (0)
Resource initialization completed at t[s]:      0.00
Run totals: 1 processes, 12 threads, 0 GPUs


Input parsed successfully to the following command list (including defaults):

basis kpoint-dependent
coords-type Lattice
core-overlap-check vector
coulomb-interaction Periodic
davidson-band-ratio 1.1
dump End State IonicPositions ElecDensity EigStats Ecomponents
dump-name 100_0-Vacuum.$VAR
elec-cutoff 20 100
elec-eigen-algo Davidson
elec-ex-corr gga-PBEsol
elec-smearing Fermi 0.01
electronic-minimize  \
	dirUpdateScheme      FletcherReeves \
	linminMethod         DirUpdateRecommended \
	nIterations          200 \
	history              15 \
	knormThreshold       0 \
	energyDiffThreshold  1e-08 \
	nEnergyDiff          2 \
	alphaTstart          1 \
	alphaTmin            1e-10 \
	updateTestStepSize   yes \
	alphaTreduceFactor   0.1 \
	alphaTincreaseFactor 3 \
	nAlphaAdjustMax      3 \
	wolfeEnergy          0.0001 \
	wolfeGradient        0.9 \
	fdTest               no
exchange-regularization WignerSeitzTruncated
fluid None
fluid-ex-corr lda-TF lda-PZ
fluid-gummel-loop 10 1.000000e-05
fluid-minimize  \
	dirUpdateScheme      PolakRibiere \
	linminMethod         DirUpdateRecommended \
	nIterations          100 \
	history              15 \
	knormThreshold       0 \
	energyDiffThreshold  0 \
	nEnergyDiff          2 \
	alphaTstart          1 \
	alphaTmin            1e-10 \
	updateTestStepSize   yes \
	alphaTreduceFactor   0.1 \
	alphaTincreaseFactor 3 \
	nAlphaAdjustMax      3 \
	wolfeEnergy          0.0001 \
	wolfeGradient        0.9 \
	fdTest               no
fluid-solvent H2O 55.338 ScalarEOS \
	epsBulk 78.4 \
	pMol 0.92466 \
	epsInf 1.77 \
	Pvap 1.06736e-10 \
	sigmaBulk 4.62e-05 \
	Rvdw 2.61727 \
	Res 1.42 \
	tauNuc 343133 \
	omegaEl 0.55124 \
	gammaEl 0.257245
forces-output-coords Positions
ion O   0.500000000000000   0.316350000000000   0.331400000000000 1
ion C   0.500000000000000   0.500000000000000   0.292900000000000 1
ion H   0.500000000000000   0.676870000000000   0.321250000000000 1
ion Pt   0.000000000000000   0.000000000000000  -0.166660000000000 0
ion Pt   0.000000000000000   0.500000000000000  -0.166660000000000 0
ion Pt   0.500000000000000   0.000000000000000  -0.166660000000000 0
ion Pt   0.500000000000000   0.500000000000000  -0.166660000000000 0
ion Pt   0.250000000000000   0.250000000000000  -0.083330000000000 0
ion Pt   0.250000000000000   0.750000000000000  -0.083330000000000 0
ion Pt   0.750000000000000   0.250000000000000  -0.083330000000000 0
ion Pt   0.750000000000000   0.750000000000000  -0.083330000000000 0
ion Pt   0.000000000000000   0.000000000000000   0.000000000000000 1
ion Pt   0.000000000000000   0.500000000000000   0.000000000000000 1
ion Pt   0.500000000000000   0.000000000000000   0.000000000000000 1
ion Pt   0.500000000000000   0.500000000000000   0.000000000000000 1
ion Pt   0.250000000000000   0.250000000000000   0.083330000000000 1
ion Pt   0.250000000000000   0.750000000000000   0.083330000000000 1
ion Pt   0.750000000000000   0.250000000000000   0.083330000000000 1
ion Pt   0.750000000000000   0.750000000000000   0.083330000000000 1
ion Pt   0.000000000000000   0.000000000000000   0.166660000000000 1
ion Pt   0.000000000000000   0.500000000000000   0.166660000000000 1
ion Pt   0.500000000000000   0.000000000000000   0.166660000000000 1
ion Pt   0.500000000000000   0.500000000000000   0.166660000000000 1
ion-species GBRV/$ID_pbesol.uspp
ion-width 0
ionic-minimize  \
	dirUpdateScheme      L-BFGS \
	linminMethod         DirUpdateRecommended \
	nIterations          8 \
	history              15 \
	knormThreshold       0.0001 \
	energyDiffThreshold  1e-06 \
	nEnergyDiff          2 \
	alphaTstart          1 \
	alphaTmin            1e-10 \
	updateTestStepSize   yes \
	alphaTreduceFactor   0.1 \
	alphaTincreaseFactor 3 \
	nAlphaAdjustMax      3 \
	wolfeEnergy          0.0001 \
	wolfeGradient        0.9 \
	fdTest               no
kpoint   0.000000000000   0.000000000000   0.000000000000  1.00000000000000
kpoint-folding 4 4 1 
latt-move-scale 1 1 1
latt-scale 1 1 1 
lattice Triclinic 15.0309 10.6282 31.8847 90 90 90
lattice-minimize  \
	dirUpdateScheme      L-BFGS \
	linminMethod         DirUpdateRecommended \
	nIterations          0 \
	history              15 \
	knormThreshold       0 \
	energyDiffThreshold  1e-06 \
	nEnergyDiff          2 \
	alphaTstart          1 \
	alphaTmin            1e-10 \
	updateTestStepSize   yes \
	alphaTreduceFactor   0.1 \
	alphaTincreaseFactor 3 \
	nAlphaAdjustMax      3 \
	wolfeEnergy          0.0001 \
	wolfeGradient        0.9 \
	fdTest               no
lcao-params -1 1e-06 0.01
pcm-variant GLSSA13
spintype no-spin
subspace-rotation-factor 1 yes
symmetries automatic
symmetry-threshold 0.0001



---------- Setting up symmetries ----------

Found 8 point-group symmetries of the bravais lattice
Found 2 space-group symmetries with basis
Applied RMS atom displacement 0 bohrs to make symmetries exact.

---------- Initializing the Grid ----------
R = 
[    15.0309          0          0  ]
[          0    10.6282          0  ]
[          0          0    31.8847  ]
unit cell volume = 5093.63
G =
[   0.418018          0          0  ]
[          0   0.591179          0  ]
[          0          0    0.19706  ]
Minimum fftbox size, Smin = [  68  48  144  ]
Chosen fftbox size, S = [  70  48  144  ]

---------- Initializing tighter grid for wavefunction operations ----------
R = 
[    15.0309          0          0  ]
[          0    10.6282          0  ]
[          0          0    31.8847  ]
unit cell volume = 5093.63
G =
[   0.418018          0          0  ]
[          0   0.591179          0  ]
[          0          0    0.19706  ]
Minimum fftbox size, Smin = [  64  44  132  ]
Chosen fftbox size, S = [  64  48  140  ]

---------- Exchange Correlation functional ----------
Initalized PBEsol GGA exchange.
Initalized PBEsol GGA correlation.

---------- Setting up pseudopotentials ----------
Width of ionic core gaussian charges (only for fluid interactions / plotting) set to 0

Reading pseudopotential file '/home/jfm343/JDFTXDIR/build/pseudopotentials/GBRV/o_pbesol.uspp':
  Title: O.  Created by USPP 7.3.6 on 3-2-2014
  Reference state energy: -15.849885.  6 valence electrons in orbitals:
    |200>  occupation: 2  eigenvalue: -0.873214
    |210>  occupation: 4  eigenvalue: -0.330058
  lMax: 2  lLocal: 2  QijEcut: 6
  5 projectors sampled on a log grid with 511 points:
    l: 0  eig: -0.873214  rCut: 1.25
    l: 0  eig: 0.000000  rCut: 1.25
    l: 1  eig: -0.330058  rCut: 1.25
    l: 1  eig: 0.000000  rCut: 1.25
    l: 2  eig: 1.000000  rCut: 1.25
  Partial core density with radius 0.7
  Transforming core density to a uniform radial grid of dG=0.02 with 1247 points.
  Transforming local potential to a uniform radial grid of dG=0.02 with 1247 points.
  Transforming nonlocal projectors to a uniform radial grid of dG=0.02 with 432 points.
  Transforming density augmentations to a uniform radial grid of dG=0.02 with 1247 points.
  Transforming atomic orbitals to a uniform radial grid of dG=0.02 with 432 points.
  Core radius for overlap checks: 1.25 bohrs.

Reading pseudopotential file '/home/jfm343/JDFTXDIR/build/pseudopotentials/GBRV/c_pbesol.uspp':
  Title: C.  Created by USPP 7.3.6 on 3-2-2014
  Reference state energy: -5.383511.  4 valence electrons in orbitals:
    |200>  occupation: 2  eigenvalue: -0.501126
    |210>  occupation: 2  eigenvalue: -0.192448
  lMax: 1  lLocal: 2  QijEcut: 5
  4 projectors sampled on a log grid with 503 points:
    l: 0  eig: -0.501126  rCut: 1.3
    l: 0  eig: 0.000000  rCut: 1.3
    l: 1  eig: -0.192448  rCut: 1.3
    l: 1  eig: 0.000000  rCut: 1.3
  Partial core density with radius 1.1
  Transforming core density to a uniform radial grid of dG=0.02 with 1247 points.
  Transforming local potential to a uniform radial grid of dG=0.02 with 1247 points.
  Transforming nonlocal projectors to a uniform radial grid of dG=0.02 with 432 points.
  Transforming density augmentations to a uniform radial grid of dG=0.02 with 1247 points.
  Transforming atomic orbitals to a uniform radial grid of dG=0.02 with 432 points.
  Core radius for overlap checks: 1.30 bohrs.

Reading pseudopotential file '/home/jfm343/JDFTXDIR/build/pseudopotentials/GBRV/h_pbesol.uspp':
  Title: H.  Created by USPP 7.3.6 on 22-9-15
  Reference state energy: -0.449841.  1 valence electrons in orbitals:
    |100>  occupation: 1  eigenvalue: -0.232690
  lMax: 0  lLocal: 1  QijEcut: 6
  2 projectors sampled on a log grid with 395 points:
    l: 0  eig: -0.232690  rCut: 1.2
    l: 0  eig: 1.000000  rCut: 1.2
  Transforming local potential to a uniform radial grid of dG=0.02 with 1247 points.
  Transforming nonlocal projectors to a uniform radial grid of dG=0.02 with 432 points.
  Transforming density augmentations to a uniform radial grid of dG=0.02 with 1247 points.
  Transforming atomic orbitals to a uniform radial grid of dG=0.02 with 432 points.
  Core radius for overlap checks: 1.20 bohrs.

Reading pseudopotential file '/home/jfm343/JDFTXDIR/build/pseudopotentials/GBRV/pt_pbesol.uspp':
  Title: Pt.  Created by USPP 7.3.6 on 22-9-15
  Reference state energy: -104.899005.  16 valence electrons in orbitals:
    |510>  occupation: 6  eigenvalue: -2.158847
    |520>  occupation: 9.5  eigenvalue: -0.336311
    |600>  occupation: 0  eigenvalue: -0.320324
    |610>  occupation: 0  eigenvalue: -0.119800
  lMax: 2  lLocal: 3  QijEcut: 5.5
  6 projectors sampled on a log grid with 745 points:
    l: 0  eig: -0.320324  rCut: 2.45
    l: 0  eig: 1.500000  rCut: 2.45
    l: 1  eig: -2.158847  rCut: 1.6
    l: 1  eig: -0.119800  rCut: 1.6
    l: 2  eig: -0.500000  rCut: 1.6
    l: 2  eig: -0.336311  rCut: 1.6
  Partial core density with radius 1.1
  Transforming core density to a uniform radial grid of dG=0.02 with 1247 points.
  Transforming local potential to a uniform radial grid of dG=0.02 with 1247 points.
  Transforming nonlocal projectors to a uniform radial grid of dG=0.02 with 432 points.
  Transforming density augmentations to a uniform radial grid of dG=0.02 with 1247 points.
  Transforming atomic orbitals to a uniform radial grid of dG=0.02 with 432 points.
  Core radius for overlap checks: 2.45 bohrs.

Initialized 4 species with 23 total atoms.

Folded 1 k-points by 4x4x1 to 16 k-points.

---------- Setting up k-points, bands, fillings ----------
Adding inversion symmetry to k-mesh for non-inversion-symmetric unit cell.
Reduced to 9 k-points under symmetry. 
Computing the number of bands and number of electrons
Calculating initial fillings.
nElectrons: 331.000000   nBands: 249   nStates: 9

----- Setting up reduced wavefunction bases (one per k-point) -----
average nbasis = 21760.562 , ideal nbasis = 21760.388

---------- Setting up ewald sum ----------
Optimum gaussian width for ewald sums = 4.070346 bohr.
Real space sum over 693 unit cells with max indices [  4  5  3  ]
Reciprocal space sum over 4455 terms with max indices [  7  5  13  ]

---------- Allocating electronic variables ----------
Initializing wave functions:  linear combination of atomic orbitals
O pseudo-atom occupations:   s ( 2 )  p ( 4 )
C pseudo-atom occupations:   s ( 2 )  p ( 2 )
H pseudo-atom occupations:   s ( 1 )
Pt pseudo-atom occupations:   s ( 0 )  p ( 6 0 )  d ( 10 )
	FillingsUpdate:  mu: -0.408389057  nElectrons: 331.000000
LCAOMinimize: Iter:   0  F: -1790.0637592759860581  |grad|_K:  2.326e-02  alpha:  1.000e+00
LCAOMinimize: 	Step increased F by 6.863739e+01, reducing alpha to 2.326791e-02.
	FillingsUpdate:  mu: -0.263709582  nElectrons: 331.000000
LCAOMinimize: Iter:   1  F: -1795.9439294671592506  |grad|_K:  1.429e-02  alpha:  2.327e-02  linmin: -2.832e-01  cgtest:  8.812e-01  t[s]:    410.69
LCAOMinimize: Encountered beta<0, resetting CG.
LCAOMinimize: 	Predicted alpha/alphaT>3.000000, increasing alphaT to 6.980372e-02.
	FillingsUpdate:  mu: +0.262471880  nElectrons: 331.000000
LCAOMinimize: Iter:   2  F: -1799.9239795513592526  |grad|_K:  8.882e-03  alpha:  6.898e-02  linmin:  7.357e-02  cgtest: -3.969e-01  t[s]:    536.90
	FillingsUpdate:  mu: +0.378189681  nElectrons: 331.000000
LCAOMinimize: Iter:   3  F: -1800.6411556498683240  |grad|_K:  8.881e-03  alpha:  4.476e-02  linmin: -8.804e-03  cgtest:  5.282e-01  t[s]:    637.35
	FillingsUpdate:  mu: +0.255315945  nElectrons: 331.000000
LCAOMinimize: Iter:   4  F: -1801.6372985554146453  |grad|_K:  4.300e-03  alpha:  4.408e-02  linmin: -3.311e-02  cgtest: -5.351e-02  t[s]:    737.42
	FillingsUpdate:  mu: +0.184227648  nElectrons: 331.000000
LCAOMinimize: Iter:   5  F: -1801.7841003985638508  |grad|_K:  2.099e-03  alpha:  2.729e-02  linmin:  5.050e-03  cgtest: -1.375e-01  t[s]:    833.78
LCAOMinimize: 	Predicted alpha/alphaT>3.000000, increasing alphaT to 8.187314e-02.
	FillingsUpdate:  mu: +0.173783802  nElectrons: 331.000000
LCAOMinimize: Iter:   6  F: -1801.9476631753045694  |grad|_K:  2.415e-03  alpha:  1.287e-01  linmin: -1.465e-02  cgtest:  2.522e-01  t[s]:    957.54
	FillingsUpdate:  mu: +0.219113881  nElectrons: 331.000000
LCAOMinimize: Iter:   7  F: -1802.1286254412300423  |grad|_K:  1.167e-03  alpha:  1.045e-01  linmin: -4.520e-03  cgtest: -2.629e-01  t[s]:   1056.32
	FillingsUpdate:  mu: +0.223762403  nElectrons: 331.000000
LCAOMinimize: Iter:   8  F: -1802.1465717278981629  |grad|_K:  1.213e-03  alpha:  4.666e-02  linmin:  1.553e-03  cgtest: -4.309e-02  t[s]:   1155.80
	FillingsUpdate:  mu: +0.209828977  nElectrons: 331.000000
LCAOMinimize: Iter:   9  F: -1802.1733097969481605  |grad|_K:  3.572e-04  alpha:  6.546e-02  linmin:  9.386e-04  cgtest:  2.196e-01  t[s]:   1252.20
	FillingsUpdate:  mu: +0.212889953  nElectrons: 331.000000
LCAOMinimize: Iter:  10  F: -1802.1760680465240512  |grad|_K:  4.525e-04  alpha:  7.701e-02  linmin:  1.389e-03  cgtest: -2.859e-03  t[s]:   1351.86
	FillingsUpdate:  mu: +0.211310551  nElectrons: 331.000000
LCAOMinimize: Iter:  11  F: -1802.1785187597995446  |grad|_K:  2.439e-04  alpha:  4.259e-02  linmin: -8.248e-04  cgtest:  1.082e-02  t[s]:   1453.26
	FillingsUpdate:  mu: +0.205371489  nElectrons: 331.000000
LCAOMinimize: Iter:  12  F: -1802.1802669339808745  |grad|_K:  1.503e-04  alpha:  1.050e-01  linmin:  4.799e-03  cgtest: -2.381e-02  t[s]:   1552.53
	FillingsUpdate:  mu: +0.204485295  nElectrons: 331.000000
LCAOMinimize: Iter:  13  F: -1802.1808458349867124  |grad|_K:  1.264e-04  alpha:  9.233e-02  linmin:  5.366e-04  cgtest:  4.013e-02  t[s]:   1652.06
	FillingsUpdate:  mu: +0.204092920  nElectrons: 331.000000
LCAOMinimize: Iter:  14  F: -1802.1809555742281646  |grad|_K:  4.349e-05  alpha:  2.446e-02  linmin: -3.864e-04  cgtest: -3.231e-03  t[s]:   1751.33
LCAOMinimize: 	Predicted alpha/alphaT>3.000000, increasing alphaT to 7.338139e-02.
	FillingsUpdate:  mu: +0.203748693  nElectrons: 331.000000
LCAOMinimize: Iter:  15  F: -1802.1810096618767147  |grad|_K:  2.552e-05  alpha:  1.016e-01  linmin:  4.647e-04  cgtest: -6.340e-03  t[s]:   1873.53
	FillingsUpdate:  mu: +0.203303738  nElectrons: 331.000000
LCAOMinimize: Iter:  16  F: -1802.1810356256066825  |grad|_K:  2.045e-05  alpha:  1.418e-01  linmin: -1.202e-04  cgtest:  8.997e-04  t[s]:   1972.61
	FillingsUpdate:  mu: +0.203988053  nElectrons: 331.000000
LCAOMinimize: Iter:  17  F: -1802.1810568436947051  |grad|_K:  1.481e-05  alpha:  1.803e-01  linmin:  9.062e-05  cgtest: -2.896e-03  t[s]:   2071.64
	FillingsUpdate:  mu: +0.203903835  nElectrons: 331.000000
LCAOMinimize: Iter:  18  F: -1802.1810616701632171  |grad|_K:  1.444e-05  alpha:  7.838e-02  linmin:  6.091e-05  cgtest:  4.410e-05  t[s]:   2168.99
	FillingsUpdate:  mu: +0.203889993  nElectrons: 331.000000
LCAOMinimize: Iter:  19  F: -1802.1810634888145159  |grad|_K:  7.115e-06  alpha:  3.101e-02  linmin:  5.006e-05  cgtest:  3.587e-04  t[s]:   2269.41
LCAOMinimize: 	Predicted alpha/alphaT>3.000000, increasing alphaT to 9.304402e-02.
	FillingsUpdate:  mu: +0.203997135  nElectrons: 331.000000
LCAOMinimize: Iter:  20  F: -1802.1810651011876416  |grad|_K:  4.019e-06  alpha:  1.133e-01  linmin:  6.007e-05  cgtest: -1.639e-04  t[s]:   2395.88
	FillingsUpdate:  mu: +0.203910741  nElectrons: 331.000000
LCAOMinimize: Iter:  21  F: -1802.1810660336827823  |grad|_K:  2.830e-06  alpha:  2.054e-01  linmin:  2.361e-04  cgtest: -1.299e-03  t[s]:   2495.87
	FillingsUpdate:  mu: +0.203883904  nElectrons: 331.000000
LCAOMinimize: Iter:  22  F: -1802.1810662089103516  |grad|_K:  1.720e-06  alpha:  7.788e-02  linmin: -3.816e-05  cgtest:  3.539e-03  t[s]:   2593.96
LCAOMinimize: Converged (|Delta F|<1.000000e-06 for 2 iters).


---- Citations for features of the code used in this run ----

   Software package:
      R. Sundararaman, K. Letchworth-Weaver, K.A. Schwarz, D. Gunceler, Y. Ozhabes and T.A. Arias, 'JDFTx: software for joint density-functional theory', SoftwareX 6, 278 (2017)

   gga-PBEsol exchange-correlation functional:
      J.P. Perdew et al., Phys. Rev. Lett. 100, 136406 (2008)

   Pseudopotentials:
      KF Garrity, JW Bennett, KM Rabe and D Vanderbilt, Comput. Mater. Sci. 81, 446 (2014)

   Total energy minimization with Auxiliary Hamiltonian:
      C. Freysoldt, S. Boeck, and J. Neugebauer, Phys. Rev. B 79, 241103(R) (2009)

This list may not be complete. Please suggest additional citations or
report any other bugs at https://github.com/shankar1729/jdftx/issues

Initialization completed successfully at t[s]:   2675.89


-------- Electronic minimization -----------
	FillingsUpdate:  mu: +0.203883904  nElectrons: 331.000000
ElecMinimize: Iter:   0  F: -1802.181066208907623  |grad|_K:  1.263e-04  alpha:  1.000e+00
	FillingsUpdate:  mu: +0.230361884  nElectrons: 331.000000
	SubspaceRotationAdjust: set factor to 1
ElecMinimize: Iter:   1  F: -1802.518450154735774  |grad|_K:  6.500e-05  alpha:  4.371e-01  linmin:  8.172e-05  t[s]:   3260.96
	FillingsUpdate:  mu: +0.209564368  nElectrons: 331.000000
	SubspaceRotationAdjust: set factor to 0.577
ElecMinimize: Iter:   2  F: -1802.579767152332352  |grad|_K:  8.833e-05  alpha:  2.979e-01  linmin: -1.325e-06  t[s]:   3669.17
	FillingsUpdate:  mu: +0.210444487  nElectrons: 331.000000
	SubspaceRotationAdjust: set factor to 0.409
ElecMinimize: Iter:   3  F: -1802.596626708415670  |grad|_K:  5.162e-05  alpha:  3.953e-02  linmin: -4.166e-04  t[s]:   4075.89
	FillingsUpdate:  mu: +0.220891718  nElectrons: 331.000000
	SubspaceRotationAdjust: set factor to 0.236
ElecMinimize: Iter:   4  F: -1802.607971334038666  |grad|_K:  2.785e-05  alpha:  7.913e-02  linmin:  5.506e-05  t[s]:   4482.65
ElecMinimize: 	Predicted alpha/alphaT>3.000000, increasing alphaT to 2.373906e-01.
	FillingsUpdate:  mu: +0.226213510  nElectrons: 331.000000
	SubspaceRotationAdjust: set factor to 0.186
ElecMinimize: Iter:   5  F: -1802.619669548437514  |grad|_K:  2.205e-05  alpha:  3.128e-01  linmin:  1.218e-05  t[s]:   4982.64
	FillingsUpdate:  mu: +0.220032201  nElectrons: 331.000000
	SubspaceRotationAdjust: set factor to 0.152
ElecMinimize: Iter:   6  F: -1802.623316412176109  |grad|_K:  1.589e-05  alpha:  1.540e-01  linmin:  7.994e-06  t[s]:   5390.65
	FillingsUpdate:  mu: +0.214087416  nElectrons: 331.000000
	SubspaceRotationAdjust: set factor to 0.156
ElecMinimize: Iter:   7  F: -1802.626019129909537  |grad|_K:  1.008e-05  alpha:  2.187e-01  linmin:  7.812e-06  t[s]:   5790.24
	FillingsUpdate:  mu: +0.215953666  nElectrons: 331.000000
	SubspaceRotationAdjust: set factor to 0.154
ElecMinimize: Iter:   8  F: -1802.627447089192628  |grad|_K:  8.703e-06  alpha:  2.874e-01  linmin:  1.088e-05  t[s]:   6191.87
	FillingsUpdate:  mu: +0.217924689  nElectrons: 331.000000
	SubspaceRotationAdjust: set factor to 0.141
ElecMinimize: Iter:   9  F: -1802.628189959574911  |grad|_K:  6.143e-06  alpha:  2.002e-01  linmin:  7.858e-07  t[s]:   6596.12
	FillingsUpdate:  mu: +0.219012073  nElectrons: 331.000000
	SubspaceRotationAdjust: set factor to 0.191
ElecMinimize: Iter:  10  F: -1802.628768571999444  |grad|_K:  5.245e-06  alpha:  3.128e-01  linmin:  4.958e-06  t[s]:   7001.98
	FillingsUpdate:  mu: +0.218170964  nElectrons: 331.000000
	SubspaceRotationAdjust: set factor to 0.183
ElecMinimize: Iter:  11  F: -1802.629136002443147  |grad|_K:  5.334e-06  alpha:  2.726e-01  linmin:  1.665e-06  t[s]:   7405.11
	FillingsUpdate:  mu: +0.216802507  nElectrons: 331.000000
	SubspaceRotationAdjust: set factor to 0.192
ElecMinimize: Iter:  12  F: -1802.629506635153575  |grad|_K:  4.507e-06  alpha:  2.658e-01  linmin:  3.750e-06  t[s]:   7809.75
	FillingsUpdate:  mu: +0.217784136  nElectrons: 331.000000
	SubspaceRotationAdjust: set factor to 0.225
ElecMinimize: Iter:  13  F: -1802.629868175290767  |grad|_K:  4.366e-06  alpha:  3.638e-01  linmin:  3.542e-06  t[s]:   8218.41
	FillingsUpdate:  mu: +0.218985218  nElectrons: 331.000000
	SubspaceRotationAdjust: set factor to 0.19
ElecMinimize: Iter:  14  F: -1802.630087933709774  |grad|_K:  4.146e-06  alpha:  2.353e-01  linmin: -1.943e-07  t[s]:   8623.84
	FillingsUpdate:  mu: +0.219161647  nElectrons: 331.000000
	SubspaceRotationAdjust: set factor to 0.173
ElecMinimize: Iter:  15  F: -1802.630256090430066  |grad|_K:  2.929e-06  alpha:  1.993e-01  linmin:  1.027e-06  t[s]:   9029.37
	FillingsUpdate:  mu: +0.218555014  nElectrons: 331.000000
	SubspaceRotationAdjust: set factor to 0.176
ElecMinimize: Iter:  16  F: -1802.630383277072042  |grad|_K:  2.321e-06  alpha:  3.032e-01  linmin:  4.547e-06  t[s]:   9435.01
	FillingsUpdate:  mu: +0.218605210  nElectrons: 331.000000
	SubspaceRotationAdjust: set factor to 0.174
ElecMinimize: Iter:  17  F: -1802.630448947445757  |grad|_K:  1.809e-06  alpha:  2.495e-01  linmin: -9.408e-08  t[s]:   9838.28
	FillingsUpdate:  mu: +0.218931702  nElectrons: 331.000000
	SubspaceRotationAdjust: set factor to 0.152
ElecMinimize: Iter:  18  F: -1802.630482315656764  |grad|_K:  1.319e-06  alpha:  2.078e-01  linmin: -3.930e-07  t[s]:  10246.45
	FillingsUpdate:  mu: +0.219231973  nElectrons: 331.000000
	SubspaceRotationAdjust: set factor to 0.18
ElecMinimize: Iter:  19  F: -1802.630506032179255  |grad|_K:  9.433e-07  alpha:  2.779e-01  linmin: -5.456e-07  t[s]:  10651.42
	FillingsUpdate:  mu: +0.219119119  nElectrons: 331.000000
	SubspaceRotationAdjust: set factor to 0.201
ElecMinimize: Iter:  20  F: -1802.630517403690874  |grad|_K:  7.718e-07  alpha:  2.604e-01  linmin:  5.428e-10  t[s]:  11052.53
	FillingsUpdate:  mu: +0.218919092  nElectrons: 331.000000
	SubspaceRotationAdjust: set factor to 0.202
ElecMinimize: Iter:  21  F: -1802.630524345427375  |grad|_K:  6.694e-07  alpha:  2.376e-01  linmin:  1.301e-07  t[s]:  11463.02
	FillingsUpdate:  mu: +0.218878400  nElectrons: 331.000000
	SubspaceRotationAdjust: set factor to 0.273
ElecMinimize: Iter:  22  F: -1802.630530292093908  |grad|_K:  5.370e-07  alpha:  2.706e-01  linmin:  5.054e-07  t[s]:  11868.55
	FillingsUpdate:  mu: +0.218988152  nElectrons: 331.000000
	SubspaceRotationAdjust: set factor to 0.315
ElecMinimize: Iter:  23  F: -1802.630534864029869  |grad|_K:  5.422e-07  alpha:  3.237e-01  linmin:  5.882e-07  t[s]:  12273.33
	FillingsUpdate:  mu: +0.218926977  nElectrons: 331.000000
	SubspaceRotationAdjust: set factor to 0.302
ElecMinimize: Iter:  24  F: -1802.630538827294913  |grad|_K:  5.950e-07  alpha:  2.752e-01  linmin:  4.436e-07  t[s]:  12672.86
	FillingsUpdate:  mu: +0.218830191  nElectrons: 331.000000
	SubspaceRotationAdjust: set factor to 0.25
ElecMinimize: Iter:  25  F: -1802.630541139331172  |grad|_K:  4.957e-07  alpha:  1.330e-01  linmin: -2.607e-07  t[s]:  13079.27
	FillingsUpdate:  mu: +0.218690214  nElectrons: 331.000000
	SubspaceRotationAdjust: set factor to 0.274
ElecMinimize: Iter:  26  F: -1802.630544066000539  |grad|_K:  4.287e-07  alpha:  2.433e-01  linmin:  1.247e-06  t[s]:  13484.30
	FillingsUpdate:  mu: +0.218729869  nElectrons: 331.000000
	SubspaceRotationAdjust: set factor to 0.317
ElecMinimize: Iter:  27  F: -1802.630546314518142  |grad|_K:  3.452e-07  alpha:  2.512e-01  linmin:  6.161e-07  t[s]:  13887.72
	FillingsUpdate:  mu: +0.218783614  nElectrons: 331.000000
	SubspaceRotationAdjust: set factor to 0.276
ElecMinimize: Iter:  28  F: -1802.630547408982466  |grad|_K:  3.548e-07  alpha:  1.877e-01  linmin:  3.143e-08  t[s]:  14284.14
	FillingsUpdate:  mu: +0.218778017  nElectrons: 331.000000
	SubspaceRotationAdjust: set factor to 0.263
ElecMinimize: Iter:  29  F: -1802.630548368696054  |grad|_K:  2.688e-07  alpha:  1.554e-01  linmin:  1.694e-09  t[s]:  14689.86
	FillingsUpdate:  mu: +0.218725143  nElectrons: 331.000000
	SubspaceRotationAdjust: set factor to 0.293
ElecMinimize: Iter:  30  F: -1802.630549109988806  |grad|_K:  1.971e-07  alpha:  2.091e-01  linmin: -3.539e-08  t[s]:  15094.62
	FillingsUpdate:  mu: +0.218726269  nElectrons: 331.000000
	SubspaceRotationAdjust: set factor to 0.312
ElecMinimize: Iter:  31  F: -1802.630549642353344  |grad|_K:  1.891e-07  alpha:  2.795e-01  linmin:  1.859e-08  t[s]:  15500.50
	FillingsUpdate:  mu: +0.218764602  nElectrons: 331.000000
	SubspaceRotationAdjust: set factor to 0.302
ElecMinimize: Iter:  32  F: -1802.630549932413032  |grad|_K:  1.723e-07  alpha:  1.655e-01  linmin: -2.736e-08  t[s]:  15907.58
	FillingsUpdate:  mu: +0.218804869  nElectrons: 331.000000
	SubspaceRotationAdjust: set factor to 0.312
ElecMinimize: Iter:  33  F: -1802.630550160127996  |grad|_K:  1.422e-07  alpha:  1.564e-01  linmin:  2.995e-08  t[s]:  16309.75
	FillingsUpdate:  mu: +0.218799933  nElectrons: 331.000000
	SubspaceRotationAdjust: set factor to 0.456
ElecMinimize: Iter:  34  F: -1802.630550411718787  |grad|_K:  1.183e-07  alpha:  2.539e-01  linmin:  3.218e-07  t[s]:  16715.46
	FillingsUpdate:  mu: +0.218774151  nElectrons: 331.000000
	SubspaceRotationAdjust: set factor to 0.458
ElecMinimize: Iter:  35  F: -1802.630550577987833  |grad|_K:  1.238e-07  alpha:  2.429e-01  linmin:  1.781e-07  t[s]:  17123.17
	FillingsUpdate:  mu: +0.218789325  nElectrons: 331.000000
	SubspaceRotationAdjust: set factor to 0.342
ElecMinimize: Iter:  36  F: -1802.630550696329465  |grad|_K:  1.457e-07  alpha:  1.576e-01  linmin:  4.765e-08  t[s]:  17531.89
	FillingsUpdate:  mu: +0.218809641  nElectrons: 331.000000
	SubspaceRotationAdjust: set factor to 0.299
ElecMinimize: Iter:  37  F: -1802.630550791901669  |grad|_K:  9.469e-08  alpha:  9.176e-02  linmin: -6.740e-09  t[s]:  17934.37
	FillingsUpdate:  mu: +0.218828060  nElectrons: 331.000000
	SubspaceRotationAdjust: set factor to 0.371
ElecMinimize: Iter:  38  F: -1802.630550903217454  |grad|_K:  8.880e-08  alpha:  2.547e-01  linmin:  7.808e-07  t[s]:  18341.24
	FillingsUpdate:  mu: +0.218820634  nElectrons: 331.000000
	SubspaceRotationAdjust: set factor to 0.356
ElecMinimize: Iter:  39  F: -1802.630550963468977  |grad|_K:  8.967e-08  alpha:  1.569e-01  linmin: -5.445e-08  t[s]:  18750.05
	FillingsUpdate:  mu: +0.218804943  nElectrons: 331.000000
	SubspaceRotationAdjust: set factor to 0.309
ElecMinimize: Iter:  40  F: -1802.630551010513500  |grad|_K:  6.682e-08  alpha:  1.195e-01  linmin: -6.609e-08  t[s]:  19158.24
	FillingsUpdate:  mu: +0.218802255  nElectrons: 331.000000
	SubspaceRotationAdjust: set factor to 0.426
ElecMinimize: Iter:  41  F: -1802.630551065659802  |grad|_K:  5.626e-08  alpha:  2.530e-01  linmin:  3.456e-07  t[s]:  19563.50
	FillingsUpdate:  mu: +0.218812336  nElectrons: 331.000000
	SubspaceRotationAdjust: set factor to 0.388
ElecMinimize: Iter:  42  F: -1802.630551094280463  |grad|_K:  5.724e-08  alpha:  1.849e-01  linmin: -1.559e-08  t[s]:  19967.28
	FillingsUpdate:  mu: +0.218813880  nElectrons: 331.000000
	SubspaceRotationAdjust: set factor to 0.346
ElecMinimize: Iter:  43  F: -1802.630551111263912  |grad|_K:  5.069e-08  alpha:  1.058e-01  linmin:  6.013e-08  t[s]:  20372.76
	FillingsUpdate:  mu: +0.218806269  nElectrons: 331.000000
	SubspaceRotationAdjust: set factor to 0.503
ElecMinimize: Iter:  44  F: -1802.630551134458301  |grad|_K:  3.641e-08  alpha:  1.840e-01  linmin:  1.975e-07  t[s]:  20782.77
	FillingsUpdate:  mu: +0.218796246  nElectrons: 331.000000
	SubspaceRotationAdjust: set factor to 0.428
ElecMinimize: Iter:  45  F: -1802.630551150055680  |grad|_K:  3.987e-08  alpha:  2.402e-01  linmin: -3.045e-07  t[s]:  21187.63
	FillingsUpdate:  mu: +0.218795767  nElectrons: 331.000000
	SubspaceRotationAdjust: set factor to 0.328
ElecMinimize: Iter:  46  F: -1802.630551158836624  |grad|_K:  4.131e-08  alpha:  1.111e-01  linmin: -4.873e-08  t[s]:  21594.37
	FillingsUpdate:  mu: +0.218800218  nElectrons: 331.000000
	SubspaceRotationAdjust: set factor to 0.374
ElecMinimize: Iter:  47  F: -1802.630551168750344  |grad|_K:  2.812e-08  alpha:  1.178e-01  linmin: -3.543e-07  t[s]:  21999.66
ElecMinimize: Converged (|Delta F|<1.000000e-08 for 2 iters).
Setting wave functions to eigenvectors of Hamiltonian

# Ionic positions in lattice coordinates:
ion O   0.500000000000000   0.316350000000000   0.331400000000000 1
ion C   0.500000000000000   0.500000000000000   0.292900000000000 1
ion H   0.500000000000000   0.676870000000000   0.321250000000000 1
ion Pt   0.000000000000000   0.000000000000000  -0.166660000000000 0
ion Pt   0.000000000000000   0.500000000000000  -0.166660000000000 0
ion Pt   0.500000000000000   0.000000000000000  -0.166660000000000 0
ion Pt   0.500000000000000   0.500000000000000  -0.166660000000000 0
ion Pt   0.250000000000000   0.250000000000000  -0.083330000000000 0
ion Pt   0.250000000000000   0.750000000000000  -0.083330000000000 0
ion Pt   0.750000000000000   0.250000000000000  -0.083330000000000 0
ion Pt   0.750000000000000   0.750000000000000  -0.083330000000000 0
ion Pt   0.000000000000000   0.000000000000000   0.000000000000000 1
ion Pt   0.000000000000000   0.500000000000000   0.000000000000000 1
ion Pt   0.500000000000000   0.000000000000000   0.000000000000000 1
ion Pt   0.500000000000000   0.500000000000000   0.000000000000000 1
ion Pt   0.250000000000000   0.250000000000000   0.083330000000000 1
ion Pt   0.250000000000000   0.750000000000000   0.083330000000000 1
ion Pt   0.750000000000000   0.250000000000000   0.083330000000000 1
ion Pt   0.750000000000000   0.750000000000000   0.083330000000000 1
ion Pt   0.000000000000000   0.000000000000000   0.166660000000000 1
ion Pt   0.000000000000000   0.500000000000000   0.166660000000000 1
ion Pt   0.500000000000000   0.000000000000000   0.166660000000000 1
ion Pt   0.500000000000000   0.500000000000000   0.166660000000000 1


# Forces in Lattice coordinates:
force O   0.000000000000000   0.271113819441959  -0.552083834947808 1
force C   0.000000000000000  -0.410188730205575  -0.806832916565856 1
force H   0.000000000000000   0.103655142494127   0.058960991051578 1
force Pt   0.000000000000000  -0.000166407155210   0.912654014102838 0
force Pt   0.000000000000000   0.000099060056494   0.909388672569652 0
force Pt   0.000000000000000  -0.001197495323579   0.915516138169835 0
force Pt   0.000000000000000   0.001117105701052   0.788794573783736 0
force Pt   0.007684167704154   0.003323983620561  -0.502997064303831 0
force Pt   0.007944086267780  -0.003303646836906  -0.502036863537175 0
force Pt  -0.007684167704154   0.003323983620561  -0.502997064303831 0
force Pt  -0.007944086267780  -0.003303646836906  -0.502036863537175 0
force Pt   0.000000000000000  -0.000639089170362  -0.042511511210051 1
force Pt   0.000000000000000   0.000617722292994   0.005217967989813 1
force Pt   0.000000000000000  -0.000771315146197   0.032714181037176 1
force Pt   0.000000000000000  -0.003063003585471   0.069403306578688 1
force Pt  -0.011409582576936  -0.003686705150105   0.463697914958526 1
force Pt  -0.010454049388885   0.003804991453974   0.469196842274933 1
force Pt   0.011409582576936  -0.003686705150105   0.463697914958526 1
force Pt   0.010454049388885   0.003804991453974   0.469196842274933 1
force Pt   0.000000000000000   0.000327220022108  -0.929987488032329 1
force Pt   0.000000000000000   0.000102875556138  -0.921390019889082 1
force Pt   0.000000000000000   0.011466099825460  -0.987792765283980 1
force Pt   0.000000000000000   0.028142155251788   0.669674485446589 1

# Energy components:
   Eewald =     2071.4137575637528244
       EH =     3734.6914634123668293
     Eloc =    -7924.0075256653381075
      Enl =      -18.2599846509939887
      Exc =     -571.0247235447019420
 Exc_core =      324.9287563506196079
       KE =      579.8873453635212627
-------------------------------------
     Etot =    -1802.3709111707728425
       TS =        0.2596399979773882
-------------------------------------
        F =    -1802.6305511687503440

IonicMinimize: Iter:   0  F: -1802.630551168750344  |grad|_K:  1.260e-02  t[s]:  22065.00

#--- Lowdin population analysis ---
# oxidation-state O -0.183
# oxidation-state C +0.251
# oxidation-state H +0.233
# oxidation-state Pt +0.073 +0.074 +0.074 +0.069 -0.050 -0.050 -0.050 -0.050 +0.005 +0.004 +0.005 -0.015 -0.048 -0.048 -0.048 -0.048 +0.067 +0.069 +0.061 -0.066


-------- Electronic minimization -----------
	FillingsUpdate:  mu: +0.211673457  nElectrons: 331.000000
ElecMinimize: Iter:   0  F: -1802.471378438979627  |grad|_K:  9.805e-05  alpha:  1.000e+00
	FillingsUpdate:  mu: +0.247314665  nElectrons: 331.000000
	SubspaceRotationAdjust: set factor to 0.208
ElecMinimize: Iter:   1  F: -1802.585248303696972  |grad|_K:  1.054e-04  alpha:  2.440e-01  linmin:  8.866e-04  t[s]:  22781.41
	FillingsUpdate:  mu: +0.221985405  nElectrons: 331.000000
	SubspaceRotationAdjust: set factor to 0.135
ElecMinimize: Iter:   2  F: -1802.620507980993807  |grad|_K:  2.295e-05  alpha:  6.566e-02  linmin:  3.560e-04  t[s]:  23189.99
ElecMinimize: 	Predicted alpha/alphaT>3.000000, increasing alphaT to 1.969770e-01.
	FillingsUpdate:  mu: +0.219390571  nElectrons: 331.000000
	SubspaceRotationAdjust: set factor to 0.126
ElecMinimize: Iter:   3  F: -1802.629281702937078  |grad|_K:  1.182e-05  alpha:  3.411e-01  linmin:  3.614e-05  t[s]:  23688.32
	FillingsUpdate:  mu: +0.219159747  nElectrons: 331.000000
	SubspaceRotationAdjust: set factor to 0.0936
ElecMinimize: Iter:   4  F: -1802.630768520651372  |grad|_K:  8.108e-06  alpha:  2.172e-01  linmin:  2.695e-06  t[s]:  24087.62
	FillingsUpdate:  mu: +0.220180276  nElectrons: 331.000000
	SubspaceRotationAdjust: set factor to 0.13
ElecMinimize: Iter:   5  F: -1802.631911303174320  |grad|_K:  5.534e-06  alpha:  3.549e-01  linmin:  5.091e-05  t[s]:  24489.35
	FillingsUpdate:  mu: +0.220012963  nElectrons: 331.000000
	SubspaceRotationAdjust: set factor to 0.107
ElecMinimize: Iter:   6  F: -1802.632949376672968  |grad|_K:  6.998e-06  alpha:  6.952e-01  linmin:  7.860e-05  t[s]:  24897.83
	FillingsUpdate:  mu: +0.219233474  nElectrons: 331.000000
	SubspaceRotationAdjust: set factor to 0.0843
ElecMinimize: Iter:   7  F: -1802.633644491824725  |grad|_K:  6.029e-06  alpha:  2.972e-01  linmin:  1.006e-04  t[s]:  25302.14
	FillingsUpdate:  mu: +0.219254431  nElectrons: 331.000000
	SubspaceRotationAdjust: set factor to 0.105
ElecMinimize: Iter:   8  F: -1802.634552857377912  |grad|_K:  5.446e-06  alpha:  5.171e-01  linmin:  3.434e-05  t[s]:  25702.96
	FillingsUpdate:  mu: +0.219476475  nElectrons: 331.000000
	SubspaceRotationAdjust: set factor to 0.0956
ElecMinimize: Iter:   9  F: -1802.635235480745678  |grad|_K:  5.174e-06  alpha:  4.714e-01  linmin:  5.140e-05  t[s]:  26110.17
	FillingsUpdate:  mu: +0.219013762  nElectrons: 331.000000
	SubspaceRotationAdjust: set factor to 0.0776
ElecMinimize: Iter:  10  F: -1802.635635500197395  |grad|_K:  3.384e-06  alpha:  3.085e-01  linmin:  2.017e-06  t[s]:  26516.33
	FillingsUpdate:  mu: +0.219000798  nElectrons: 331.000000
	SubspaceRotationAdjust: set factor to 0.0966
ElecMinimize: Iter:  11  F: -1802.635857544677719  |grad|_K:  2.151e-06  alpha:  3.956e-01  linmin:  1.807e-06  t[s]:  26922.48
	FillingsUpdate:  mu: +0.219092561  nElectrons: 331.000000
	SubspaceRotationAdjust: set factor to 0.0815
ElecMinimize: Iter:  12  F: -1802.635941520970619  |grad|_K:  1.546e-06  alpha:  3.702e-01  linmin:  8.751e-06  t[s]:  27333.41
	FillingsUpdate:  mu: +0.219085466  nElectrons: 331.000000
	SubspaceRotationAdjust: set factor to 0.0755
ElecMinimize: Iter:  13  F: -1802.635980153960872  |grad|_K:  8.960e-07  alpha:  3.300e-01  linmin: -3.064e-06  t[s]:  27738.39
	FillingsUpdate:  mu: +0.219115097  nElectrons: 331.000000
	SubspaceRotationAdjust: set factor to 0.0951
ElecMinimize: Iter:  14  F: -1802.635997005580975  |grad|_K:  6.302e-07  alpha:  4.278e-01  linmin:  2.364e-07  t[s]:  28142.95
	FillingsUpdate:  mu: +0.219152038  nElectrons: 331.000000
	SubspaceRotationAdjust: set factor to 0.0988
ElecMinimize: Iter:  15  F: -1802.636004679803136  |grad|_K:  4.893e-07  alpha:  3.939e-01  linmin:  3.829e-07  t[s]:  28548.76
	FillingsUpdate:  mu: +0.219180482  nElectrons: 331.000000
	SubspaceRotationAdjust: set factor to 0.104
ElecMinimize: Iter:  16  F: -1802.636009893180244  |grad|_K:  3.824e-07  alpha:  4.440e-01  linmin: -3.548e-07  t[s]:  28954.46
	FillingsUpdate:  mu: +0.219220940  nElectrons: 331.000000
	SubspaceRotationAdjust: set factor to 0.117
ElecMinimize: Iter:  17  F: -1802.636013283774446  |grad|_K:  3.347e-07  alpha:  4.726e-01  linmin:  2.226e-07  t[s]:  29361.73
	FillingsUpdate:  mu: +0.219237843  nElectrons: 331.000000
	SubspaceRotationAdjust: set factor to 0.142
ElecMinimize: Iter:  18  F: -1802.636015910585456  |grad|_K:  2.869e-07  alpha:  4.783e-01  linmin: -2.005e-08  t[s]:  29767.38
	FillingsUpdate:  mu: +0.219239790  nElectrons: 331.000000
	SubspaceRotationAdjust: set factor to 0.156
ElecMinimize: Iter:  19  F: -1802.636018105239373  |grad|_K:  2.765e-07  alpha:  5.437e-01  linmin: -1.796e-07  t[s]:  30170.46
	FillingsUpdate:  mu: +0.219262679  nElectrons: 331.000000
	SubspaceRotationAdjust: set factor to 0.132
ElecMinimize: Iter:  20  F: -1802.636019407197637  |grad|_K:  2.823e-07  alpha:  3.469e-01  linmin: -6.295e-09  t[s]:  30576.13
	FillingsUpdate:  mu: +0.219268786  nElectrons: 331.000000
	SubspaceRotationAdjust: set factor to 0.11
ElecMinimize: Iter:  21  F: -1802.636020652155594  |grad|_K:  1.959e-07  alpha:  3.186e-01  linmin: -6.508e-08  t[s]:  30981.94
	FillingsUpdate:  mu: +0.219256943  nElectrons: 331.000000
	SubspaceRotationAdjust: set factor to 0.12
ElecMinimize: Iter:  22  F: -1802.636021469977550  |grad|_K:  1.492e-07  alpha:  4.344e-01  linmin:  4.449e-08  t[s]:  31385.12
	FillingsUpdate:  mu: +0.219248396  nElectrons: 331.000000
	SubspaceRotationAdjust: set factor to 0.132
ElecMinimize: Iter:  23  F: -1802.636021893380530  |grad|_K:  9.697e-08  alpha:  3.880e-01  linmin:  3.240e-08  t[s]:  31791.57
	FillingsUpdate:  mu: +0.219248705  nElectrons: 331.000000
	SubspaceRotationAdjust: set factor to 0.129
ElecMinimize: Iter:  24  F: -1802.636022084032902  |grad|_K:  7.232e-08  alpha:  4.136e-01  linmin: -3.193e-08  t[s]:  32197.85
	FillingsUpdate:  mu: +0.219249075  nElectrons: 331.000000
	SubspaceRotationAdjust: set factor to 0.101
ElecMinimize: Iter:  25  F: -1802.636022159400000  |grad|_K:  5.543e-08  alpha:  2.938e-01  linmin:  3.290e-07  t[s]:  32598.76
	FillingsUpdate:  mu: +0.219244683  nElectrons: 331.000000
	SubspaceRotationAdjust: set factor to 0.099
ElecMinimize: Iter:  26  F: -1802.636022209643443  |grad|_K:  3.474e-08  alpha:  3.346e-01  linmin:  5.386e-07  t[s]:  33004.89
	FillingsUpdate:  mu: +0.219243909  nElectrons: 331.000000
	SubspaceRotationAdjust: set factor to 0.125
ElecMinimize: Iter:  27  F: -1802.636022234387610  |grad|_K:  2.513e-08  alpha:  4.194e-01  linmin: -7.828e-08  t[s]:  33413.92
	FillingsUpdate:  mu: +0.219243432  nElectrons: 331.000000
	SubspaceRotationAdjust: set factor to 0.137
ElecMinimize: Iter:  28  F: -1802.636022247284018  |grad|_K:  2.195e-08  alpha:  4.184e-01  linmin:  6.016e-07  t[s]:  33820.85
	FillingsUpdate:  mu: +0.219240760  nElectrons: 331.000000
	SubspaceRotationAdjust: set factor to 0.128
ElecMinimize: Iter:  29  F: -1802.636022256411479  |grad|_K:  2.013e-08  alpha:  3.859e-01  linmin: -2.355e-07  t[s]:  34228.42
	FillingsUpdate:  mu: +0.219239155  nElectrons: 331.000000
	SubspaceRotationAdjust: set factor to 0.123
ElecMinimize: Iter:  30  F: -1802.636022263484847  |grad|_K:  1.628e-08  alpha:  3.573e-01  linmin:  8.249e-07  t[s]:  34629.02
ElecMinimize: Converged (|Delta F|<1.000000e-08 for 2 iters).
Setting wave functions to eigenvectors of Hamiltonian

# Ionic positions in lattice coordinates:
ion O   0.500000000000000   0.318750107132594   0.330856947968480 1
ion C   0.500000000000000   0.496368695262002   0.292106366448893 1
ion H   0.500000000000000   0.677787634694323   0.321307996420008 1
ion Pt   0.000000000000000   0.000000000000000  -0.166660000000000 0
ion Pt   0.000000000000000   0.500000000000000  -0.166660000000000 0
ion Pt   0.500000000000000   0.000000000000000  -0.166660000000000 0
ion Pt   0.500000000000000   0.500000000000000  -0.166660000000000 0
ion Pt   0.250000000000000   0.250000000000000  -0.083330000000000 0
ion Pt   0.250000000000000   0.750000000000000  -0.083330000000000 0
ion Pt   0.750000000000000   0.250000000000000  -0.083330000000000 0
ion Pt   0.750000000000000   0.750000000000000  -0.083330000000000 0
ion Pt   0.000000000000000  -0.000005657706713  -0.000041816045072 1
ion Pt   0.000000000000000   0.500005468550753   0.000005132604757 1
ion Pt   0.500000000000000  -0.000006828272302   0.000032178994108 1
ion Pt   0.500000000000000   0.499972883946795   0.000068267904702 1
ion Pt   0.249949499105894   0.249967362462951   0.083786112059057 1
ion Pt   0.249953728470116   0.750033684697987   0.083791521026792 1
ion Pt   0.750050500894106   0.249967362462951   0.083786112059057 1
ion Pt   0.750046271529884   0.750033684697987   0.083791521026792 1
ion Pt   0.000000000000000   0.000002896802201   0.165745226621946 1
ion Pt   0.000000000000000   0.500000910733199   0.165753683439997 1
ion Pt   0.500000000000000   0.000101506695715   0.165688367008863 1
ion Pt   0.500000000000000   0.500249135907883   0.167318718960343 1


# Forces in Lattice coordinates:
force O   0.000000000000000  -0.099615805116557   0.083910189772958 1
force C   0.000000000000000   0.097295837718762  -1.058990294287435 1
force H   0.000000000000000  -0.024356880657085  -0.198972810113786 1
force Pt   0.000000000000000  -0.000124057176098   0.916526372553802 0
force Pt   0.000000000000000   0.000066134162101   0.915092505360129 0
force Pt   0.000000000000000  -0.000943742281096   0.921458694975604 0
force Pt   0.000000000000000   0.000816783923255   0.791231941851422 0
force Pt   0.009184094917352   0.003719880230948  -0.491885657997376 0
force Pt   0.009342829877231  -0.003721699356978  -0.490962834499186 0
force Pt  -0.009184094917352   0.003719880230948  -0.491885657997376 0
force Pt  -0.009342829877231  -0.003721699356978  -0.490962834499186 0
force Pt   0.000000000000000  -0.000334285901666  -0.063351819672940 1
force Pt   0.000000000000000   0.000338782825147  -0.016358725105867 1
force Pt   0.000000000000000  -0.001079438006187   0.010927854641368 1
force Pt   0.000000000000000  -0.001689725662063   0.078019550895502 1
force Pt  -0.003874462199686   0.000791093334320   0.417074830697170 1
force Pt  -0.003455677386818   0.000189036608740   0.420686473139837 1
force Pt   0.003874462199686   0.000791093334320   0.417074830697170 1
force Pt   0.003455677386818   0.000189036608740   0.420686473139837 1
force Pt   0.000000000000000   0.000189625693374  -0.868738046210761 1
force Pt   0.000000000000000   0.000143763186254  -0.864819714728337 1
force Pt   0.000000000000000   0.009892629444141  -0.926556629408462 1
force Pt   0.000000000000000   0.017711713326918   0.537213268565311 1

# Energy components:
   Eewald =     2075.6984045793706173
       EH =     3739.0159806972324077
     Eloc =    -7932.6653176523968796
      Enl =      -18.2395195199860893
      Exc =     -571.0500397477277374
 Exc_core =      324.9287554792812784
       KE =      579.9345924355277475
-------------------------------------
     Etot =    -1802.3771437286984565
       TS =        0.2588785347864530
-------------------------------------
        F =    -1802.6360222634848469

IonicMinimize: Iter:   1  F: -1802.636022263484847  |grad|_K:  1.015e-02  alpha:  1.000e+00  linmin: -4.804e-01  t[s]:  34694.78

#--- Lowdin population analysis ---
# oxidation-state O -0.172
# oxidation-state C +0.265
# oxidation-state H +0.222
# oxidation-state Pt +0.073 +0.073 +0.074 +0.069 -0.050 -0.050 -0.050 -0.050 +0.005 +0.004 +0.004 -0.016 -0.049 -0.049 -0.049 -0.049 +0.067 +0.068 +0.058 -0.067


-------- Electronic minimization -----------
	FillingsUpdate:  mu: +0.206597791  nElectrons: 331.000000
ElecMinimize: Iter:   0  F: -1801.322466842018684  |grad|_K:  2.684e-04  alpha:  1.000e+00
	FillingsUpdate:  mu: +0.247695841  nElectrons: 331.000000
	SubspaceRotationAdjust: set factor to 0.104
ElecMinimize: Iter:   1  F: -1802.452051991486996  |grad|_K:  9.530e-05  alpha:  3.263e-01  linmin:  6.755e-03  t[s]:  35407.60
	FillingsUpdate:  mu: +0.227718165  nElectrons: 331.000000
	SubspaceRotationAdjust: set factor to 0.0586
ElecMinimize: Iter:   2  F: -1802.544230602419020  |grad|_K:  4.760e-05  alpha:  2.117e-01  linmin: -4.647e-06  t[s]:  35810.43
	FillingsUpdate:  mu: +0.217147422  nElectrons: 331.000000
	SubspaceRotationAdjust: set factor to 0.087
ElecMinimize: Iter:   3  F: -1802.577424381802075  |grad|_K:  2.014e-05  alpha:  2.983e-01  linmin: -2.232e-04  t[s]:  36214.51
	FillingsUpdate:  mu: +0.218972735  nElectrons: 331.000000
	SubspaceRotationAdjust: set factor to 0.081
ElecMinimize: Iter:   4  F: -1802.586559246835122  |grad|_K:  1.683e-05  alpha:  4.572e-01  linmin: -7.295e-05  t[s]:  36619.05
	FillingsUpdate:  mu: +0.222026661  nElectrons: 331.000000
	SubspaceRotationAdjust: set factor to 0.0825
ElecMinimize: Iter:   5  F: -1802.596167028618993  |grad|_K:  2.209e-05  alpha:  6.970e-01  linmin:  2.469e-04  t[s]:  37022.00
	FillingsUpdate:  mu: +0.219718623  nElectrons: 331.000000
	SubspaceRotationAdjust: set factor to 0.103
ElecMinimize: Iter:   6  F: -1802.609065007493655  |grad|_K:  2.006e-05  alpha:  5.582e-01  linmin: -8.235e-05  t[s]:  37424.99
	FillingsUpdate:  mu: +0.220965270  nElectrons: 331.000000
	SubspaceRotationAdjust: set factor to 0.105
ElecMinimize: Iter:   7  F: -1802.622328111753177  |grad|_K:  2.242e-05  alpha:  6.581e-01  linmin: -2.415e-04  t[s]:  37827.39
	FillingsUpdate:  mu: +0.221864688  nElectrons: 331.000000
	SubspaceRotationAdjust: set factor to 0.0802
ElecMinimize: Iter:   8  F: -1802.632537411292333  |grad|_K:  2.010e-05  alpha:  3.697e-01  linmin: -2.082e-04  t[s]:  38231.55
	FillingsUpdate:  mu: +0.219624799  nElectrons: 331.000000
	SubspaceRotationAdjust: set factor to 0.112
ElecMinimize: Iter:   9  F: -1802.640496957573077  |grad|_K:  1.314e-05  alpha:  3.887e-01  linmin: -1.070e-04  t[s]:  38642.08
	FillingsUpdate:  mu: +0.219027177  nElectrons: 331.000000
	SubspaceRotationAdjust: set factor to 0.0932
ElecMinimize: Iter:  10  F: -1802.643589073491739  |grad|_K:  9.120e-06  alpha:  3.606e-01  linmin: -9.509e-05  t[s]:  39049.07
	FillingsUpdate:  mu: +0.218696166  nElectrons: 331.000000
	SubspaceRotationAdjust: set factor to 0.0679
ElecMinimize: Iter:  11  F: -1802.644747566133447  |grad|_K:  5.610e-06  alpha:  2.813e-01  linmin:  2.305e-05  t[s]:  39454.88
	FillingsUpdate:  mu: +0.218722294  nElectrons: 331.000000
	SubspaceRotationAdjust: set factor to 0.0913
ElecMinimize: Iter:  12  F: -1802.645349769210043  |grad|_K:  3.225e-06  alpha:  3.905e-01  linmin: -2.127e-05  t[s]:  39861.77
	FillingsUpdate:  mu: +0.218903225  nElectrons: 331.000000
	SubspaceRotationAdjust: set factor to 0.0897
ElecMinimize: Iter:  13  F: -1802.645556357604619  |grad|_K:  2.292e-06  alpha:  4.045e-01  linmin: -1.958e-05  t[s]:  40268.38
	FillingsUpdate:  mu: +0.219064798  nElectrons: 331.000000
	SubspaceRotationAdjust: set factor to 0.0928
ElecMinimize: Iter:  14  F: -1802.645652296063190  |grad|_K:  1.654e-06  alpha:  3.721e-01  linmin:  6.941e-06  t[s]:  40673.32
	FillingsUpdate:  mu: +0.219066265  nElectrons: 331.000000
	SubspaceRotationAdjust: set factor to 0.12
ElecMinimize: Iter:  15  F: -1802.645721729639490  |grad|_K:  1.332e-06  alpha:  5.172e-01  linmin: -4.128e-06  t[s]:  41081.90
	FillingsUpdate:  mu: +0.219064107  nElectrons: 331.000000
	SubspaceRotationAdjust: set factor to 0.142
ElecMinimize: Iter:  16  F: -1802.645771219655671  |grad|_K:  1.324e-06  alpha:  5.687e-01  linmin: -1.854e-07  t[s]:  41487.18
	FillingsUpdate:  mu: +0.219101414  nElectrons: 331.000000
	SubspaceRotationAdjust: set factor to 0.132
ElecMinimize: Iter:  17  F: -1802.645806399735875  |grad|_K:  1.319e-06  alpha:  4.089e-01  linmin:  6.306e-07  t[s]:  41890.82
	FillingsUpdate:  mu: +0.219034955  nElectrons: 331.000000
	SubspaceRotationAdjust: set factor to 0.11
ElecMinimize: Iter:  18  F: -1802.645835699008103  |grad|_K:  1.100e-06  alpha:  3.434e-01  linmin: -1.140e-07  t[s]:  42292.49
	FillingsUpdate:  mu: +0.218971811  nElectrons: 331.000000
	SubspaceRotationAdjust: set factor to 0.121
ElecMinimize: Iter:  19  F: -1802.645861170374474  |grad|_K:  8.058e-07  alpha:  4.289e-01  linmin:  1.997e-06  t[s]:  42695.16
	FillingsUpdate:  mu: +0.218907553  nElectrons: 331.000000
	SubspaceRotationAdjust: set factor to 0.143
ElecMinimize: Iter:  20  F: -1802.645875862500816  |grad|_K:  5.603e-07  alpha:  4.614e-01  linmin:  5.093e-07  t[s]:  43099.23
	FillingsUpdate:  mu: +0.218839126  nElectrons: 331.000000
	SubspaceRotationAdjust: set factor to 0.145
ElecMinimize: Iter:  21  F: -1802.645882868612262  |grad|_K:  4.834e-07  alpha:  4.550e-01  linmin: -6.406e-07  t[s]:  43504.76
	FillingsUpdate:  mu: +0.218805652  nElectrons: 331.000000
	SubspaceRotationAdjust: set factor to 0.115
ElecMinimize: Iter:  22  F: -1802.645885991318664  |grad|_K:  3.751e-07  alpha:  2.724e-01  linmin: -2.811e-07  t[s]:  43911.17
	FillingsUpdate:  mu: +0.218755285  nElectrons: 331.000000
	SubspaceRotationAdjust: set factor to 0.118
ElecMinimize: Iter:  23  F: -1802.645888308440135  |grad|_K:  2.439e-07  alpha:  3.357e-01  linmin: -1.467e-07  t[s]:  44316.69
	FillingsUpdate:  mu: +0.218740033  nElectrons: 331.000000
	SubspaceRotationAdjust: set factor to 0.145
ElecMinimize: Iter:  24  F: -1802.645889625959398  |grad|_K:  1.824e-07  alpha:  4.517e-01  linmin: -2.858e-07  t[s]:  44726.09
	FillingsUpdate:  mu: +0.218743173  nElectrons: 331.000000
	SubspaceRotationAdjust: set factor to 0.173
ElecMinimize: Iter:  25  F: -1802.645890403690373  |grad|_K:  1.521e-07  alpha:  4.766e-01  linmin:  6.932e-08  t[s]:  45134.73
	FillingsUpdate:  mu: +0.218746301  nElectrons: 331.000000
	SubspaceRotationAdjust: set factor to 0.149
ElecMinimize: Iter:  26  F: -1802.645890818500220  |grad|_K:  1.526e-07  alpha:  3.656e-01  linmin: -1.840e-08  t[s]:  45538.11
	FillingsUpdate:  mu: +0.218759326  nElectrons: 331.000000
	SubspaceRotationAdjust: set factor to 0.123
ElecMinimize: Iter:  27  F: -1802.645891107654279  |grad|_K:  1.176e-07  alpha:  2.530e-01  linmin:  4.039e-07  t[s]:  45947.33
	FillingsUpdate:  mu: +0.218774483  nElectrons: 331.000000
	SubspaceRotationAdjust: set factor to 0.142
ElecMinimize: Iter:  28  F: -1802.645891414499147  |grad|_K:  8.517e-08  alpha:  4.525e-01  linmin:  2.608e-07  t[s]:  46351.12
	FillingsUpdate:  mu: +0.218785970  nElectrons: 331.000000
	SubspaceRotationAdjust: set factor to 0.159
ElecMinimize: Iter:  29  F: -1802.645891579588124  |grad|_K:  6.737e-08  alpha:  4.643e-01  linmin:  2.313e-07  t[s]:  46754.76
	FillingsUpdate:  mu: +0.218794695  nElectrons: 331.000000
	SubspaceRotationAdjust: set factor to 0.14
ElecMinimize: Iter:  30  F: -1802.645891661699807  |grad|_K:  6.198e-08  alpha:  3.690e-01  linmin:  6.309e-08  t[s]:  47163.24
	FillingsUpdate:  mu: +0.218797717  nElectrons: 331.000000
	SubspaceRotationAdjust: set factor to 0.107
ElecMinimize: Iter:  31  F: -1802.645891706526527  |grad|_K:  4.167e-08  alpha:  2.380e-01  linmin:  1.416e-06  t[s]:  47568.67
	FillingsUpdate:  mu: +0.218801899  nElectrons: 331.000000
	SubspaceRotationAdjust: set factor to 0.133
ElecMinimize: Iter:  32  F: -1802.645891738262435  |grad|_K:  2.836e-08  alpha:  3.739e-01  linmin:  2.019e-06  t[s]:  47973.07
	FillingsUpdate:  mu: +0.218804415  nElectrons: 331.000000
	SubspaceRotationAdjust: set factor to 0.159
ElecMinimize: Iter:  33  F: -1802.645891755836828  |grad|_K:  2.282e-08  alpha:  4.469e-01  linmin:  4.375e-06  t[s]:  48376.46
	FillingsUpdate:  mu: +0.218804365  nElectrons: 331.000000
	SubspaceRotationAdjust: set factor to 0.139
ElecMinimize: Iter:  34  F: -1802.645891765375382  |grad|_K:  2.334e-08  alpha:  3.758e-01  linmin:  1.330e-06  t[s]:  48780.81
	FillingsUpdate:  mu: +0.218804457  nElectrons: 331.000000
	SubspaceRotationAdjust: set factor to 0.128
ElecMinimize: Iter:  35  F: -1802.645891772676578  |grad|_K:  1.728e-08  alpha:  2.776e-01  linmin: -1.815e-06  t[s]:  49185.89
ElecMinimize: Converged (|Delta F|<1.000000e-08 for 2 iters).
Setting wave functions to eigenvectors of Hamiltonian

# Ionic positions in lattice coordinates:
ion O   0.500000000000000   0.320874316341568   0.330188483322122 1
ion C   0.500000000000000   0.492395550104244   0.289263406989601 1
ion H   0.500000000000000   0.678794920192610   0.321079315553235 1
ion Pt   0.000000000000000   0.000000000000000  -0.166660000000000 0
ion Pt   0.000000000000000   0.500000000000000  -0.166660000000000 0
ion Pt   0.500000000000000   0.000000000000000  -0.166660000000000 0
ion Pt   0.500000000000000   0.500000000000000  -0.166660000000000 0
ion Pt   0.250000000000000   0.250000000000000  -0.083330000000000 0
ion Pt   0.250000000000000   0.750000000000000  -0.083330000000000 0
ion Pt   0.750000000000000   0.250000000000000  -0.083330000000000 0
ion Pt   0.750000000000000   0.750000000000000  -0.083330000000000 0
ion Pt   0.000000000000000  -0.000018753791948  -0.000203539706106 1
ion Pt   0.000000000000000   0.500018349554222  -0.000013131153065 1
ion Pt   0.500000000000000  -0.000032241763384   0.000096899143086 1
ion Pt   0.500000000000000   0.499908872833559   0.000292170554149 1
ion Pt   0.249847479826824   0.249930467372726   0.085117512633849 1
ion Pt   0.249860923283677   0.750086054925976   0.085136603189979 1
ion Pt   0.750152520173176   0.249930467372726   0.085117512633849 1
ion Pt   0.750139076716323   0.750086054925976   0.085136603189979 1
ion Pt   0.000000000000000   0.000009864614384   0.163024042550902 1
ion Pt   0.000000000000000   0.500004297335755   0.163051160733444 1
ion Pt   0.500000000000000   0.000391828887596   0.162792008908143 1
ion Pt   0.500000000000000   0.500868337592904   0.169138681519993 1


# Forces in Lattice coordinates:
force O   0.000000000000000  -0.280257084802296   0.311248035419112 1
force C   0.000000000000000   0.427151876016233  -0.600967040024309 1
force H   0.000000000000000  -0.164293733526344  -0.552038929457922 1
force Pt   0.000000000000000  -0.000037753391508   0.929756819205844 0
force Pt   0.000000000000000   0.000051886204713   0.933713516237201 0
force Pt   0.000000000000000  -0.000584277381660   0.944431391323562 0
force Pt   0.000000000000000   0.000392844406172   0.803197939672822 0
force Pt   0.013109301536500   0.005105335791162  -0.461671510014863 0
force Pt   0.013216355352795  -0.005211954253735  -0.460980954099405 0
force Pt  -0.013109301536500   0.005105335791162  -0.461671510014863 0
force Pt  -0.013216355352795  -0.005211954253735  -0.460980954099405 0
force Pt   0.000000000000000   0.000187038310756  -0.133083075340793 1
force Pt   0.000000000000000  -0.000235262450011  -0.092146596208039 1
force Pt   0.000000000000000  -0.001723548246446  -0.061767511011949 1
force Pt   0.000000000000000   0.000524177100647   0.108382774069483 1
force Pt   0.017803072341244   0.013632084331207   0.280980002114968 1
force Pt   0.016772401493275  -0.010821401895604   0.279866388464751 1
force Pt  -0.017803072341244   0.013632084331207   0.280980002114968 1
force Pt  -0.016772401493275  -0.010821401895604   0.279866388464751 1
force Pt   0.000000000000000   0.000171361791593  -0.669414010179274 1
force Pt   0.000000000000000   0.000326680593464  -0.678578374642588 1
force Pt   0.000000000000000   0.011478633065453  -0.698427271774322 1
force Pt   0.000000000000000   0.002265711932314   0.165046588718520 1

# Energy components:
   Eewald =     2088.0371578926374241
       EH =     3751.0470434082471911
     Eloc =    -7957.0742651738328277
      Enl =      -18.2100028948177410
      Exc =     -571.0899576039704471
 Exc_core =      324.9287646585563039
       KE =      579.9720051010697262
-------------------------------------
     Etot =    -1802.3892546121107898
       TS =        0.2566371605657683
-------------------------------------
        F =    -1802.6458917726765776

IonicMinimize: Iter:   2  F: -1802.645891772676578  |grad|_K:  1.061e-02  alpha:  9.462e-01  linmin: -3.286e-01  t[s]:  49252.07

#--- Lowdin population analysis ---
# oxidation-state O -0.176
# oxidation-state C +0.270
# oxidation-state H +0.209
# oxidation-state Pt +0.074 +0.074 +0.075 +0.070 -0.050 -0.050 -0.050 -0.050 +0.006 +0.003 +0.003 -0.020 -0.049 -0.050 -0.049 -0.050 +0.070 +0.071 +0.057 -0.057


-------- Electronic minimization -----------
	FillingsUpdate:  mu: +0.196594279  nElectrons: 331.000000
ElecMinimize: Iter:   0  F: -1801.219508788291250  |grad|_K:  2.786e-04  alpha:  1.000e+00
	FillingsUpdate:  mu: +0.240814834  nElectrons: 331.000000
	SubspaceRotationAdjust: set factor to 0.118
ElecMinimize: Iter:   1  F: -1802.456593215703833  |grad|_K:  9.032e-05  alpha:  3.352e-01  linmin:  8.970e-03  t[s]:  49963.87
	FillingsUpdate:  mu: +0.232216875  nElectrons: 331.000000
	SubspaceRotationAdjust: set factor to 0.0724
ElecMinimize: Iter:   2  F: -1802.548734102251046  |grad|_K:  5.071e-05  alpha:  2.378e-01  linmin: -1.060e-04  t[s]:  50368.87
	FillingsUpdate:  mu: +0.217194817  nElectrons: 331.000000
	SubspaceRotationAdjust: set factor to 0.0784
ElecMinimize: Iter:   3  F: -1802.580713680221379  |grad|_K:  2.156e-05  alpha:  2.532e-01  linmin: -2.539e-04  t[s]:  50772.98
	FillingsUpdate:  mu: +0.218903727  nElectrons: 331.000000
	SubspaceRotationAdjust: set factor to 0.0932
ElecMinimize: Iter:   4  F: -1802.591956977074233  |grad|_K:  1.764e-05  alpha:  4.907e-01  linmin: -2.452e-05  t[s]:  51178.38
	FillingsUpdate:  mu: +0.222960200  nElectrons: 331.000000
	SubspaceRotationAdjust: set factor to 0.082
ElecMinimize: Iter:   5  F: -1802.603216299450196  |grad|_K:  2.353e-05  alpha:  7.449e-01  linmin:  3.187e-04  t[s]:  51582.54
	FillingsUpdate:  mu: +0.219263847  nElectrons: 331.000000
	SubspaceRotationAdjust: set factor to 0.0853
ElecMinimize: Iter:   6  F: -1802.615982028083636  |grad|_K:  2.056e-05  alpha:  5.004e-01  linmin: -1.758e-05  t[s]:  51985.56
	FillingsUpdate:  mu: +0.217988759  nElectrons: 331.000000
	SubspaceRotationAdjust: set factor to 0.0927
ElecMinimize: Iter:   7  F: -1802.630545123779257  |grad|_K:  2.141e-05  alpha:  7.010e-01  linmin:  2.197e-05  t[s]:  52393.41
	FillingsUpdate:  mu: +0.220916855  nElectrons: 331.000000
	SubspaceRotationAdjust: set factor to 0.0888
ElecMinimize: Iter:   8  F: -1802.642796540442532  |grad|_K:  1.921e-05  alpha:  5.316e-01  linmin:  9.895e-05  t[s]:  52806.57
	FillingsUpdate:  mu: +0.218193280  nElectrons: 331.000000
	SubspaceRotationAdjust: set factor to 0.0748
ElecMinimize: Iter:   9  F: -1802.648886138952093  |grad|_K:  1.223e-05  alpha:  3.497e-01  linmin:  3.628e-06  t[s]:  53210.75
	FillingsUpdate:  mu: +0.217940234  nElectrons: 331.000000
	SubspaceRotationAdjust: set factor to 0.0836
ElecMinimize: Iter:  10  F: -1802.651682303702046  |grad|_K:  7.142e-06  alpha:  3.814e-01  linmin:  2.052e-05  t[s]:  53616.06
	FillingsUpdate:  mu: +0.218024077  nElectrons: 331.000000
	SubspaceRotationAdjust: set factor to 0.0808
ElecMinimize: Iter:  11  F: -1802.652704691515737  |grad|_K:  4.625e-06  alpha:  4.093e-01  linmin:  4.043e-05  t[s]:  54024.30
	FillingsUpdate:  mu: +0.218069419  nElectrons: 331.000000
	SubspaceRotationAdjust: set factor to 0.0739
ElecMinimize: Iter:  12  F: -1802.653065795417660  |grad|_K:  2.947e-06  alpha:  3.449e-01  linmin: -1.908e-05  t[s]:  54428.59
	FillingsUpdate:  mu: +0.218438529  nElectrons: 331.000000
	SubspaceRotationAdjust: set factor to 0.098
ElecMinimize: Iter:  13  F: -1802.653251316703063  |grad|_K:  1.945e-06  alpha:  4.352e-01  linmin:  9.053e-06  t[s]:  54833.10
	FillingsUpdate:  mu: +0.218605268  nElectrons: 331.000000
	SubspaceRotationAdjust: set factor to 0.113
ElecMinimize: Iter:  14  F: -1802.653343114932113  |grad|_K:  1.691e-06  alpha:  4.947e-01  linmin:  9.700e-06  t[s]:  55237.21
	FillingsUpdate:  mu: +0.218612795  nElectrons: 331.000000
	SubspaceRotationAdjust: set factor to 0.111
ElecMinimize: Iter:  15  F: -1802.653401315314113  |grad|_K:  1.534e-06  alpha:  4.153e-01  linmin: -6.669e-06  t[s]:  55644.09
	FillingsUpdate:  mu: +0.218717641  nElectrons: 331.000000
	SubspaceRotationAdjust: set factor to 0.119
ElecMinimize: Iter:  16  F: -1802.653455284669462  |grad|_K:  1.240e-06  alpha:  4.677e-01  linmin:  7.733e-06  t[s]:  56053.59
	FillingsUpdate:  mu: +0.218764195  nElectrons: 331.000000
	SubspaceRotationAdjust: set factor to 0.136
ElecMinimize: Iter:  17  F: -1802.653495833769966  |grad|_K:  1.057e-06  alpha:  5.380e-01  linmin:  9.576e-07  t[s]:  56460.28
	FillingsUpdate:  mu: +0.218699485  nElectrons: 331.000000
	SubspaceRotationAdjust: set factor to 0.161
ElecMinimize: Iter:  18  F: -1802.653523938419312  |grad|_K:  8.917e-07  alpha:  5.131e-01  linmin:  9.569e-07  t[s]:  56868.39
	FillingsUpdate:  mu: +0.218627462  nElectrons: 331.000000
	SubspaceRotationAdjust: set factor to 0.152
ElecMinimize: Iter:  19  F: -1802.653540388613465  |grad|_K:  8.013e-07  alpha:  4.218e-01  linmin:  1.922e-06  t[s]:  57274.02
	FillingsUpdate:  mu: +0.218533462  nElectrons: 331.000000
	SubspaceRotationAdjust: set factor to 0.117
ElecMinimize: Iter:  20  F: -1802.653548240492910  |grad|_K:  6.394e-07  alpha:  2.494e-01  linmin:  1.433e-07  t[s]:  57686.32
	FillingsUpdate:  mu: +0.218439176  nElectrons: 331.000000
	SubspaceRotationAdjust: set factor to 0.123
ElecMinimize: Iter:  21  F: -1802.653555674683048  |grad|_K:  4.023e-07  alpha:  3.707e-01  linmin:  2.597e-06  t[s]:  58090.96
	FillingsUpdate:  mu: +0.218381041  nElectrons: 331.000000
	SubspaceRotationAdjust: set factor to 0.143
ElecMinimize: Iter:  22  F: -1802.653559234787735  |grad|_K:  2.832e-07  alpha:  4.486e-01  linmin:  6.347e-07  t[s]:  58499.28
	FillingsUpdate:  mu: +0.218365814  nElectrons: 331.000000
	SubspaceRotationAdjust: set factor to 0.142
ElecMinimize: Iter:  23  F: -1802.653560878097096  |grad|_K:  2.358e-07  alpha:  4.176e-01  linmin:  4.496e-08  t[s]:  58899.64
	FillingsUpdate:  mu: +0.218376637  nElectrons: 331.000000
	SubspaceRotationAdjust: set factor to 0.118
ElecMinimize: Iter:  24  F: -1802.653561667480744  |grad|_K:  1.933e-07  alpha:  2.896e-01  linmin: -3.442e-07  t[s]:  59305.13
	FillingsUpdate:  mu: +0.218381225  nElectrons: 331.000000
	SubspaceRotationAdjust: set factor to 0.127
ElecMinimize: Iter:  25  F: -1802.653562310841835  |grad|_K:  1.330e-07  alpha:  3.512e-01  linmin:  3.226e-06  t[s]:  59710.35
	FillingsUpdate:  mu: +0.218385462  nElectrons: 331.000000
	SubspaceRotationAdjust: set factor to 0.158
ElecMinimize: Iter:  26  F: -1802.653562725681923  |grad|_K:  1.086e-07  alpha:  4.781e-01  linmin: -5.838e-06  t[s]:  60115.55
	FillingsUpdate:  mu: +0.218395242  nElectrons: 331.000000
	SubspaceRotationAdjust: set factor to 0.173
ElecMinimize: Iter:  27  F: -1802.653563014046995  |grad|_K:  9.980e-08  alpha:  4.986e-01  linmin:  4.636e-06  t[s]:  60519.37
	FillingsUpdate:  mu: +0.218401534  nElectrons: 331.000000
	SubspaceRotationAdjust: set factor to 0.138
ElecMinimize: Iter:  28  F: -1802.653563151984144  |grad|_K:  9.275e-08  alpha:  2.827e-01  linmin:  1.999e-06  t[s]:  60925.39
	FillingsUpdate:  mu: +0.218414192  nElectrons: 331.000000
	SubspaceRotationAdjust: set factor to 0.116
ElecMinimize: Iter:  29  F: -1802.653563271052690  |grad|_K:  6.102e-08  alpha:  2.822e-01  linmin: -5.699e-07  t[s]:  61332.23
	FillingsUpdate:  mu: +0.218421534  nElectrons: 331.000000
	SubspaceRotationAdjust: set factor to 0.13
ElecMinimize: Iter:  30  F: -1802.653563354686185  |grad|_K:  4.101e-08  alpha:  4.564e-01  linmin: -1.260e-05  t[s]:  61740.89
	FillingsUpdate:  mu: +0.218423818  nElectrons: 331.000000
	SubspaceRotationAdjust: set factor to 0.144
ElecMinimize: Iter:  31  F: -1802.653563390223553  |grad|_K:  2.955e-08  alpha:  4.297e-01  linmin: -4.123e-06  t[s]:  62148.13
	FillingsUpdate:  mu: +0.218425500  nElectrons: 331.000000
	SubspaceRotationAdjust: set factor to 0.139
ElecMinimize: Iter:  32  F: -1802.653563406796366  |grad|_K:  2.508e-08  alpha:  3.880e-01  linmin:  1.233e-05  t[s]:  62552.95
	FillingsUpdate:  mu: +0.218425416  nElectrons: 331.000000
	SubspaceRotationAdjust: set factor to 0.121
ElecMinimize: Iter:  33  F: -1802.653563415851977  |grad|_K:  2.023e-08  alpha:  2.975e-01  linmin:  6.003e-06  t[s]:  62958.39
	FillingsUpdate:  mu: +0.218425781  nElectrons: 331.000000
	SubspaceRotationAdjust: set factor to 0.135
ElecMinimize: Iter:  34  F: -1802.653563423580636  |grad|_K:  1.493e-08  alpha:  3.842e-01  linmin:  1.728e-05  t[s]:  63365.11
ElecMinimize: Converged (|Delta F|<1.000000e-08 for 2 iters).
Setting wave functions to eigenvectors of Hamiltonian

# Ionic positions in lattice coordinates:
ion O   0.500000000000000   0.321574342050958   0.329445990817908 1
ion C   0.500000000000000   0.492406177102990   0.287223277797395 1
ion H   0.500000000000000   0.677172315539435   0.319893172081064 1
ion Pt   0.000000000000000   0.000000000000000  -0.166660000000000 0
ion Pt   0.000000000000000   0.500000000000000  -0.166660000000000 0
ion Pt   0.500000000000000   0.000000000000000  -0.166660000000000 0
ion Pt   0.500000000000000   0.500000000000000  -0.166660000000000 0
ion Pt   0.250000000000000   0.250000000000000  -0.083330000000000 0
ion Pt   0.250000000000000   0.750000000000000  -0.083330000000000 0
ion Pt   0.750000000000000   0.250000000000000  -0.083330000000000 0
ion Pt   0.750000000000000   0.750000000000000  -0.083330000000000 0
ion Pt   0.000000000000000  -0.000023542446997  -0.000618726667640 1
ion Pt   0.000000000000000   0.500021128621788  -0.000258567866231 1
ion Pt   0.500000000000000  -0.000081509022971  -0.000029533563373 1
ion Pt   0.500000000000000   0.499876855381896   0.000674904031405 1
ion Pt   0.249992876165740   0.250212871272241   0.086475261748654 1
ion Pt   0.249999876494592   0.749869270889191   0.086499010774898 1
ion Pt   0.750007123834260   0.250212871272241   0.086475261748654 1
ion Pt   0.750000123505408   0.749869270889191   0.086499010774898 1
ion Pt   0.000000000000000   0.000019636619302   0.160029391288416 1
ion Pt   0.000000000000000   0.500013647665681   0.160043667531627 1
ion Pt   0.500000000000000   0.000831611131601   0.159659132371079 1
ion Pt   0.500000000000000   0.501325431197525   0.170465351290376 1


# Forces in Lattice coordinates:
force O   0.000000000000000  -0.193062927548194   0.068636400834691 1
force C   0.000000000000000   0.316524981175051   0.029004778223057 1
force H   0.000000000000000  -0.142960680612771  -0.580596229072945 1
force Pt   0.000000000000000   0.000037175061929   0.935664526182849 0
force Pt   0.000000000000000   0.000118783746456   0.946597204182642 0
force Pt   0.000000000000000  -0.000543191844039   0.966218201177197 0
force Pt   0.000000000000000   0.000354625363971   0.819360913576688 0
force Pt   0.019529710998528   0.007325229038134  -0.438011887438704 0
force Pt   0.019608696742596  -0.007523814740898  -0.437666119031962 0
force Pt  -0.019529710998528   0.007325229038134  -0.438011887438704 0
force Pt  -0.019608696742596  -0.007523814740898  -0.437666119031962 0
force Pt   0.000000000000000   0.000374610812632  -0.199067978753144 1
force Pt   0.000000000000000  -0.000540014341157  -0.184332320727391 1
force Pt   0.000000000000000  -0.001948640867191  -0.159052316507868 1
force Pt   0.000000000000000   0.001174839987743   0.102017959457774 1
force Pt   0.035782313575750   0.023387825091109   0.138798994854301 1
force Pt   0.034790847605476  -0.019293457201879   0.136656878214121 1
force Pt  -0.035782313575750   0.023387825091109   0.138798994854301 1
force Pt  -0.034790847605476  -0.019293457201879   0.136656878214121 1
force Pt   0.000000000000000   0.000256108337846  -0.438312408012746 1
force Pt   0.000000000000000   0.000486175531454  -0.451534956612976 1
force Pt   0.000000000000000   0.011725882285321  -0.422521303898647 1
force Pt   0.000000000000000   0.000671522563142  -0.204878219694598 1

# Energy components:
   Eewald =     2103.0663533700071639
       EH =     3765.7580292420484511
     Eloc =    -7986.8513886277951315
      Enl =      -18.1793473362147822
      Exc =     -571.1366181848271708
 Exc_core =      324.9287663269573727
       KE =      580.0148419117156209
-------------------------------------
     Etot =    -1802.3993632981080282
       TS =        0.2542001254725154
-------------------------------------
        F =    -1802.6535634235806356

IonicMinimize: Iter:   3  F: -1802.653563423580636  |grad|_K:  7.547e-03  alpha:  5.403e-01  linmin: -3.125e-01  t[s]:  63430.59

#--- Lowdin population analysis ---
# oxidation-state O -0.186
# oxidation-state C +0.261
# oxidation-state H +0.212
# oxidation-state Pt +0.075 +0.075 +0.075 +0.071 -0.051 -0.051 -0.051 -0.051 +0.007 +0.002 +0.001 -0.023 -0.048 -0.050 -0.048 -0.050 +0.074 +0.075 +0.058 -0.040


-------- Electronic minimization -----------
	FillingsUpdate:  mu: +0.187801715  nElectrons: 331.000000
ElecMinimize: Iter:   0  F: -1801.230234767801676  |grad|_K:  2.779e-04  alpha:  1.000e+00
	FillingsUpdate:  mu: +0.229951362  nElectrons: 331.000000
	SubspaceRotationAdjust: set factor to 0.135
ElecMinimize: Iter:   1  F: -1802.472952221812193  |grad|_K:  7.939e-05  alpha:  3.424e-01  linmin:  1.044e-02  t[s]:  64142.31
	FillingsUpdate:  mu: +0.218231780  nElectrons: 331.000000
	SubspaceRotationAdjust: set factor to 0.163
ElecMinimize: Iter:   2  F: -1802.575715738581266  |grad|_K:  3.064e-05  alpha:  3.455e-01  linmin: -4.132e-04  t[s]:  64547.86
	FillingsUpdate:  mu: +0.221421664  nElectrons: 331.000000
	SubspaceRotationAdjust: set factor to 0.11
ElecMinimize: Iter:   3  F: -1802.594927054843538  |grad|_K:  2.697e-05  alpha:  4.162e-01  linmin:  1.820e-04  t[s]:  64954.84
	FillingsUpdate:  mu: +0.222254296  nElectrons: 331.000000
	SubspaceRotationAdjust: set factor to 0.0938
ElecMinimize: Iter:   4  F: -1802.604342562963893  |grad|_K:  2.388e-05  alpha:  2.698e-01  linmin:  1.255e-05  t[s]:  65366.20
	FillingsUpdate:  mu: +0.220253759  nElectrons: 331.000000
	SubspaceRotationAdjust: set factor to 0.108
ElecMinimize: Iter:   5  F: -1802.624700436935200  |grad|_K:  2.287e-05  alpha:  7.451e-01  linmin:  3.047e-04  t[s]:  65772.73
	FillingsUpdate:  mu: +0.221330235  nElectrons: 331.000000
	SubspaceRotationAdjust: set factor to 0.116
ElecMinimize: Iter:   6  F: -1802.637460727510188  |grad|_K:  2.097e-05  alpha:  5.097e-01  linmin:  4.455e-08  t[s]:  66180.32
	FillingsUpdate:  mu: +0.219480541  nElectrons: 331.000000
	SubspaceRotationAdjust: set factor to 0.0902
ElecMinimize: Iter:   7  F: -1802.646283516021413  |grad|_K:  1.946e-05  alpha:  4.156e-01  linmin: -1.381e-04  t[s]:  66585.30
	FillingsUpdate:  mu: +0.218632110  nElectrons: 331.000000
	SubspaceRotationAdjust: set factor to 0.0682
ElecMinimize: Iter:   8  F: -1802.653569249894872  |grad|_K:  1.225e-05  alpha:  3.828e-01  linmin:  1.867e-04  t[s]:  66994.15
	FillingsUpdate:  mu: +0.219106696  nElectrons: 331.000000
	SubspaceRotationAdjust: set factor to 0.0793
ElecMinimize: Iter:   9  F: -1802.656760613135702  |grad|_K:  6.811e-06  alpha:  4.430e-01  linmin: -4.571e-05  t[s]:  67400.00
	FillingsUpdate:  mu: +0.218820723  nElectrons: 331.000000
	SubspaceRotationAdjust: set factor to 0.0799
ElecMinimize: Iter:  10  F: -1802.657755810972958  |grad|_K:  4.443e-06  alpha:  4.359e-01  linmin: -1.988e-05  t[s]:  67809.05
	FillingsUpdate:  mu: +0.218812480  nElectrons: 331.000000
	SubspaceRotationAdjust: set factor to 0.0809
ElecMinimize: Iter:  11  F: -1802.658133714905716  |grad|_K:  2.683e-06  alpha:  3.898e-01  linmin:  1.085e-05  t[s]:  68213.32
	FillingsUpdate:  mu: +0.219100017  nElectrons: 331.000000
	SubspaceRotationAdjust: set factor to 0.0952
ElecMinimize: Iter:  12  F: -1802.658296815438462  |grad|_K:  1.738e-06  alpha:  4.621e-01  linmin: -1.361e-05  t[s]:  68618.33
	FillingsUpdate:  mu: +0.219296915  nElectrons: 331.000000
	SubspaceRotationAdjust: set factor to 0.116
ElecMinimize: Iter:  13  F: -1802.658381745655106  |grad|_K:  1.487e-06  alpha:  5.733e-01  linmin:  4.376e-06  t[s]:  69030.50
	FillingsUpdate:  mu: +0.219296015  nElectrons: 331.000000
	SubspaceRotationAdjust: set factor to 0.139
ElecMinimize: Iter:  14  F: -1802.658446190099994  |grad|_K:  1.393e-06  alpha:  5.941e-01  linmin: -2.589e-06  t[s]:  69438.41
	FillingsUpdate:  mu: +0.219373584  nElectrons: 331.000000
	SubspaceRotationAdjust: set factor to 0.162
ElecMinimize: Iter:  15  F: -1802.658500804031746  |grad|_K:  1.291e-06  alpha:  5.736e-01  linmin:  1.322e-06  t[s]:  69846.49
	FillingsUpdate:  mu: +0.219391499  nElectrons: 331.000000
	SubspaceRotationAdjust: set factor to 0.184
ElecMinimize: Iter:  16  F: -1802.658548225375853  |grad|_K:  1.110e-06  alpha:  5.806e-01  linmin: -1.767e-06  t[s]:  70251.85
	FillingsUpdate:  mu: +0.219246690  nElectrons: 331.000000
	SubspaceRotationAdjust: set factor to 0.183
ElecMinimize: Iter:  17  F: -1802.658578941746782  |grad|_K:  1.020e-06  alpha:  5.076e-01  linmin:  5.448e-06  t[s]:  70656.30
	FillingsUpdate:  mu: +0.219162734  nElectrons: 331.000000
	SubspaceRotationAdjust: set factor to 0.133
ElecMinimize: Iter:  18  F: -1802.658590534468203  |grad|_K:  8.739e-07  alpha:  2.274e-01  linmin:  6.743e-06  t[s]:  71062.10
	FillingsUpdate:  mu: +0.219131459  nElectrons: 331.000000
	SubspaceRotationAdjust: set factor to 0.116
ElecMinimize: Iter:  19  F: -1802.658600912517386  |grad|_K:  5.102e-07  alpha:  2.773e-01  linmin:  8.360e-06  t[s]:  71471.95
	FillingsUpdate:  mu: +0.219073020  nElectrons: 331.000000
	SubspaceRotationAdjust: set factor to 0.134
ElecMinimize: Iter:  20  F: -1802.658606484375696  |grad|_K:  3.393e-07  alpha:  4.367e-01  linmin: -2.402e-07  t[s]:  71878.07
	FillingsUpdate:  mu: +0.219042792  nElectrons: 331.000000
	SubspaceRotationAdjust: set factor to 0.136
ElecMinimize: Iter:  21  F: -1802.658608637496400  |grad|_K:  2.391e-07  alpha:  3.813e-01  linmin: -4.935e-07  t[s]:  72283.82
	FillingsUpdate:  mu: +0.219051142  nElectrons: 331.000000
	SubspaceRotationAdjust: set factor to 0.111
ElecMinimize: Iter:  22  F: -1802.658609505109098  |grad|_K:  1.909e-07  alpha:  3.093e-01  linmin:  1.308e-06  t[s]:  72688.46
	FillingsUpdate:  mu: +0.219056732  nElectrons: 331.000000
	SubspaceRotationAdjust: set factor to 0.107
ElecMinimize: Iter:  23  F: -1802.658610078224683  |grad|_K:  1.298e-07  alpha:  3.207e-01  linmin:  1.118e-06  t[s]:  73093.71
	FillingsUpdate:  mu: +0.219062725  nElectrons: 331.000000
	SubspaceRotationAdjust: set factor to 0.141
ElecMinimize: Iter:  24  F: -1802.658610459025795  |grad|_K:  9.456e-08  alpha:  4.607e-01  linmin: -5.419e-06  t[s]:  73499.97
	FillingsUpdate:  mu: +0.219070442  nElectrons: 331.000000
	SubspaceRotationAdjust: set factor to 0.152
ElecMinimize: Iter:  25  F: -1802.658610663974969  |grad|_K:  8.705e-08  alpha:  4.672e-01  linmin: -3.126e-06  t[s]:  73903.00
	FillingsUpdate:  mu: +0.219075787  nElectrons: 331.000000
	SubspaceRotationAdjust: set factor to 0.127
ElecMinimize: Iter:  26  F: -1802.658610788919077  |grad|_K:  8.516e-08  alpha:  3.361e-01  linmin:  1.417e-06  t[s]:  74306.26
	FillingsUpdate:  mu: +0.219088190  nElectrons: 331.000000
	SubspaceRotationAdjust: set factor to 0.119
ElecMinimize: Iter:  27  F: -1802.658610912196309  |grad|_K:  5.665e-08  alpha:  3.466e-01  linmin: -7.171e-06  t[s]:  74709.19
	FillingsUpdate:  mu: +0.219095868  nElectrons: 331.000000
	SubspaceRotationAdjust: set factor to 0.132
ElecMinimize: Iter:  28  F: -1802.658610987876727  |grad|_K:  4.210e-08  alpha:  4.802e-01  linmin: -9.244e-07  t[s]:  75119.58
	FillingsUpdate:  mu: +0.219100972  nElectrons: 331.000000
	SubspaceRotationAdjust: set factor to 0.146
ElecMinimize: Iter:  29  F: -1802.658611028474525  |grad|_K:  3.041e-08  alpha:  4.668e-01  linmin:  1.242e-05  t[s]:  75517.81
	FillingsUpdate:  mu: +0.219103563  nElectrons: 331.000000
	SubspaceRotationAdjust: set factor to 0.14
ElecMinimize: Iter:  30  F: -1802.658611045642374  |grad|_K:  2.299e-08  alpha:  3.789e-01  linmin: -1.582e-05  t[s]:  75922.91
	FillingsUpdate:  mu: +0.219104096  nElectrons: 331.000000
	SubspaceRotationAdjust: set factor to 0.111
ElecMinimize: Iter:  31  F: -1802.658611052981087  |grad|_K:  1.816e-08  alpha:  2.826e-01  linmin:  2.994e-06  t[s]:  76327.88
	FillingsUpdate:  mu: +0.219105436  nElectrons: 331.000000
	SubspaceRotationAdjust: set factor to 0.12
ElecMinimize: Iter:  32  F: -1802.658611058514452  |grad|_K:  1.237e-08  alpha:  3.375e-01  linmin: -6.138e-05  t[s]:  76731.14
ElecMinimize: Converged (|Delta F|<1.000000e-08 for 2 iters).
Setting wave functions to eigenvectors of Hamiltonian

# Ionic positions in lattice coordinates:
ion O   0.500000000000000   0.322022184890358   0.328108711563134 1
ion C   0.500000000000000   0.493156080009722   0.286748268258570 1
ion H   0.500000000000000   0.674687768961476   0.317882156203141 1
ion Pt   0.000000000000000   0.000000000000000  -0.166660000000000 0
ion Pt   0.000000000000000   0.500000000000000  -0.166660000000000 0
ion Pt   0.500000000000000   0.000000000000000  -0.166660000000000 0
ion Pt   0.500000000000000   0.500000000000000  -0.166660000000000 0
ion Pt   0.250000000000000   0.250000000000000  -0.083330000000000 0
ion Pt   0.250000000000000   0.750000000000000  -0.083330000000000 0
ion Pt   0.750000000000000   0.250000000000000  -0.083330000000000 0
ion Pt   0.750000000000000   0.750000000000000  -0.083330000000000 0
ion Pt   0.000000000000000  -0.000020395269233  -0.001509222624540 1
ion Pt   0.000000000000000   0.500010760512617  -0.001033913131077 1
ion Pt   0.500000000000000  -0.000161355320378  -0.000664437569380 1
ion Pt   0.500000000000000   0.499868738080797   0.001178150968041 1
ion Pt   0.250582857879789   0.251027964224281   0.087696829027990 1
ion Pt   0.250581227665893   0.749204319839483   0.087721683616186 1
ion Pt   0.749417142120211   0.251027964224281   0.087696829027990 1
ion Pt   0.749418772334107   0.749204319839483   0.087721683616186 1
ion Pt   0.000000000000000   0.000035123324918   0.156930937338924 1
[...]
FluidMinimize: Iter:  39  F: -0.003682168691414  |grad|_K:  8.172e-06  alpha:  5.088e-02  linmin: -1.219e-02  cgtest:  6.471e-01  t[s]:   5905.68
FluidMinimize: Iter:  40  F: -0.003683314085372  |grad|_K:  7.262e-06  alpha:  1.900e-02  linmin:  1.092e-02  cgtest: -1.003e-01  t[s]:   5906.00
FluidMinimize: 	Predicted alpha/alphaT>3.000000, increasing alphaT to 5.698714e-02.
FluidMinimize: Iter:  41  F: -0.003687441062408  |grad|_K:  9.437e-06  alpha:  9.276e-02  linmin:  4.517e-02  cgtest: -3.444e-02  t[s]:   5906.47
FluidMinimize: Iter:  42  F: -0.003690649417135  |grad|_K:  1.119e-05  alpha:  4.228e-02  linmin: -6.620e-03  cgtest:  3.382e-01  t[s]:   5906.79
FluidMinimize: Iter:  43  F: -0.003694494259773  |grad|_K:  1.274e-05  alpha:  3.239e-02  linmin: -1.087e-02  cgtest: -1.451e-01  t[s]:   5907.11
FluidMinimize: Iter:  44  F: -0.003700057879155  |grad|_K:  9.005e-06  alpha:  3.481e-02  linmin:  1.830e-02  cgtest: -3.002e-01  t[s]:   5907.43
FluidMinimize: Iter:  45  F: -0.003703597727959  |grad|_K:  9.035e-06  alpha:  5.424e-02  linmin: -1.062e-03  cgtest:  7.244e-01  t[s]:   5907.75
FluidMinimize: Iter:  46  F: -0.003707482078158  |grad|_K:  1.046e-05  alpha:  4.964e-02  linmin: -1.348e-02  cgtest:  2.983e-03  t[s]:   5908.07
FluidMinimize: Iter:  47  F: -0.003709767076589  |grad|_K:  7.045e-06  alpha:  1.738e-02  linmin: -3.500e-02  cgtest:  1.534e-01  t[s]:   5908.40
FluidMinimize: 	Predicted alpha/alphaT>3.000000, increasing alphaT to 5.213337e-02.
FluidMinimize: Iter:  48  F: -0.003712539428348  |grad|_K:  7.879e-06  alpha:  5.188e-02  linmin:  2.787e-03  cgtest: -9.490e-02  t[s]:   5908.86
FluidMinimize: Iter:  49  F: -0.003716988435320  |grad|_K:  8.697e-06  alpha:  7.114e-02  linmin: -4.712e-02  cgtest:  2.714e-01  t[s]:   5909.18
FluidMinimize: Iter:  50  F: -0.003718762908636  |grad|_K:  7.576e-06  alpha:  1.912e-02  linmin: -1.723e-02  cgtest:  1.891e-02  t[s]:   5909.50
FluidMinimize: 	Predicted alpha/alphaT>3.000000, increasing alphaT to 5.737129e-02.
FluidMinimize: Iter:  51  F: -0.003724770171535  |grad|_K:  8.042e-06  alpha:  9.270e-02  linmin: -2.173e-02  cgtest:  1.218e-01  t[s]:   5909.96
FluidMinimize: Iter:  52  F: -0.003727429135007  |grad|_K:  7.235e-06  alpha:  3.997e-02  linmin:  3.890e-04  cgtest: -1.099e-01  t[s]:   5910.28
FluidMinimize: Iter:  53  F: -0.003730336257565  |grad|_K:  1.424e-05  alpha:  6.187e-02  linmin:  1.959e-02  cgtest:  1.561e-01  t[s]:   5910.61
FluidMinimize: Iter:  54  F: -0.003733316783279  |grad|_K:  1.068e-05  alpha:  1.685e-02  linmin: -1.116e-02  cgtest:  8.032e-01  t[s]:   5910.93
FluidMinimize: Encountered beta<0, resetting CG.
FluidMinimize: Iter:  55  F: -0.003735390381048  |grad|_K:  7.492e-06  alpha:  1.864e-02  linmin: -1.175e-02  cgtest:  7.244e-02  t[s]:   5911.26
FluidMinimize: Iter:  56  F: -0.003737127945900  |grad|_K:  7.174e-06  alpha:  3.120e-02  linmin:  1.066e-02  cgtest: -2.303e-01  t[s]:   5911.57
FluidMinimize: Iter:  57  F: -0.003738594687495  |grad|_K:  4.829e-06  alpha:  3.123e-02  linmin: -2.623e-03  cgtest:  3.842e-01  t[s]:   5911.90
FluidMinimize: Iter:  58  F: -0.003740020112889  |grad|_K:  7.777e-06  alpha:  6.031e-02  linmin: -3.468e-02  cgtest:  3.073e-02  t[s]:   5912.22
FluidMinimize: Iter:  59  F: -0.003741531114817  |grad|_K:  4.975e-06  alpha:  2.121e-02  linmin: -1.480e-02  cgtest: -4.940e-02  t[s]:   5912.58
FluidMinimize: 	Predicted alpha/alphaT>3.000000, increasing alphaT to 6.362456e-02.
FluidMinimize: Iter:  60  F: -0.003745772918326  |grad|_K:  1.060e-05  alpha:  1.749e-01  linmin:  3.466e-02  cgtest:  3.320e-02  t[s]:   5913.04
FluidMinimize: Iter:  61  F: -0.003748062600173  |grad|_K:  1.284e-05  alpha:  3.384e-02  linmin:  2.711e-02  cgtest:  1.161e-01  t[s]:   5913.36
FluidMinimize: Iter:  62  F: -0.003752069278530  |grad|_K:  7.379e-06  alpha:  2.771e-02  linmin:  4.697e-03  cgtest:  1.835e-01  t[s]:   5913.68
FluidMinimize: Iter:  63  F: -0.003754898497399  |grad|_K:  8.117e-06  alpha:  5.193e-02  linmin: -3.134e-02  cgtest:  1.480e-01  t[s]:   5914.01
FluidMinimize: Iter:  64  F: -0.003756877102555  |grad|_K:  8.286e-06  alpha:  2.580e-02  linmin: -6.690e-03  cgtest: -7.256e-02  t[s]:   5914.33
FluidMinimize: Iter:  65  F: -0.003760520914765  |grad|_K:  6.768e-06  alpha:  5.048e-02  linmin: -1.136e-02  cgtest:  3.889e-01  t[s]:   5914.65
FluidMinimize: Iter:  66  F: -0.003763336618333  |grad|_K:  1.191e-05  alpha:  6.020e-02  linmin: -3.288e-02  cgtest:  1.764e-02  t[s]:   5914.98
FluidMinimize: Iter:  67  F: -0.003767721754341  |grad|_K:  6.784e-06  alpha:  2.614e-02  linmin: -1.452e-02  cgtest: -3.159e-01  t[s]:   5915.30
FluidMinimize: Iter:  68  F: -0.003770022876356  |grad|_K:  7.711e-06  alpha:  4.484e-02  linmin: -5.404e-03  cgtest:  7.316e-02  t[s]:   5915.63
FluidMinimize: Iter:  69  F: -0.003774785996725  |grad|_K:  7.492e-06  alpha:  7.774e-02  linmin: -1.008e-02  cgtest:  3.165e-01  t[s]:   5915.96
FluidMinimize: Iter:  70  F: -0.003776628511797  |grad|_K:  9.211e-06  alpha:  2.934e-02  linmin: -8.817e-03  cgtest:  4.713e-02  t[s]:   5916.28
FluidMinimize: Iter:  71  F: -0.003780553618973  |grad|_K:  6.717e-06  alpha:  4.255e-02  linmin: -2.883e-02  cgtest:  1.431e-01  t[s]:   5916.60
FluidMinimize: Iter:  72  F: -0.003783578590266  |grad|_K:  7.982e-06  alpha:  6.237e-02  linmin: -6.492e-03  cgtest: -5.287e-02  t[s]:   5916.92
FluidMinimize: Iter:  73  F: -0.003787238927962  |grad|_K:  1.059e-05  alpha:  5.718e-02  linmin:  3.373e-03  cgtest:  1.059e-01  t[s]:   5917.24
FluidMinimize: Iter:  74  F: -0.003790499011582  |grad|_K:  1.250e-05  alpha:  3.216e-02  linmin:  2.674e-03  cgtest: -3.826e-02  t[s]:   5917.57
FluidMinimize: Iter:  75  F: -0.003794682059187  |grad|_K:  7.701e-06  alpha:  2.694e-02  linmin:  6.720e-03  cgtest:  2.527e-01  t[s]:   5917.89
FluidMinimize: 	Predicted alpha/alphaT>3.000000, increasing alphaT to 8.082184e-02.
FluidMinimize: Iter:  76  F: -0.003799415405528  |grad|_K:  1.069e-05  alpha:  8.556e-02  linmin:  1.465e-03  cgtest:  9.406e-02  t[s]:   5918.35
FluidMinimize: Iter:  77  F: -0.003803959511277  |grad|_K:  8.133e-06  alpha:  4.563e-02  linmin:  6.995e-03  cgtest: -2.152e-01  t[s]:   5918.68
FluidMinimize: Iter:  78  F: -0.003805558210298  |grad|_K:  9.398e-06  alpha:  2.461e-02  linmin: -4.323e-03  cgtest:  8.804e-02  t[s]:   5919.00
FluidMinimize: Iter:  79  F: -0.003809774923003  |grad|_K:  8.345e-06  alpha:  4.740e-02  linmin: -6.792e-03  cgtest:  5.499e-02  t[s]:   5919.33
FluidMinimize: Iter:  80  F: -0.003813097631157  |grad|_K:  1.049e-05  alpha:  4.789e-02  linmin: -9.592e-04  cgtest:  5.397e-02  t[s]:   5919.68
FluidMinimize: Iter:  81  F: -0.003814993394991  |grad|_K:  7.871e-06  alpha:  1.571e-02  linmin: -9.819e-03  cgtest:  2.907e-01  t[s]:   5920.02
FluidMinimize: 	Predicted alpha/alphaT>3.000000, increasing alphaT to 4.712983e-02.
FluidMinimize: Iter:  82  F: -0.003818742944207  |grad|_K:  1.009e-05  alpha:  5.933e-02  linmin:  6.787e-03  cgtest: -6.684e-02  t[s]:   5920.51
FluidMinimize: Iter:  83  F: -0.003821743384893  |grad|_K:  1.116e-05  alpha:  3.404e-02  linmin:  5.299e-03  cgtest: -8.720e-02  t[s]:   5920.84
FluidMinimize: Iter:  84  F: -0.003824683908277  |grad|_K:  7.330e-06  alpha:  2.426e-02  linmin:  1.132e-03  cgtest: -1.292e-01  t[s]:   5921.18
FluidMinimize: 	Predicted alpha/alphaT>3.000000, increasing alphaT to 7.276636e-02.
FluidMinimize: Iter:  85  F: -0.003830135554462  |grad|_K:  9.109e-06  alpha:  1.237e-01  linmin:  4.736e-02  cgtest: -5.767e-02  t[s]:   5921.66
FluidMinimize: Iter:  86  F: -0.003831305509246  |grad|_K:  9.124e-06  alpha:  2.257e-02  linmin: -2.345e-03  cgtest:  6.087e-01  t[s]:   5921.99
FluidMinimize: Iter:  87  F: -0.003834183437824  |grad|_K:  9.860e-06  alpha:  3.581e-02  linmin:  6.151e-03  cgtest: -1.385e-01  t[s]:   5922.32
FluidMinimize: Iter:  88  F: -0.003836355447253  |grad|_K:  6.918e-06  alpha:  2.468e-02  linmin: -9.318e-04  cgtest: -8.789e-02  t[s]:   5922.64
FluidMinimize: Iter:  89  F: -0.003839149686917  |grad|_K:  9.865e-06  alpha:  6.213e-02  linmin:  1.036e-02  cgtest: -1.781e-01  t[s]:   5922.96
FluidMinimize: Iter:  90  F: -0.003841711922427  |grad|_K:  8.652e-06  alpha:  3.220e-02  linmin:  6.439e-03  cgtest:  1.121e-01  t[s]:   5923.28
FluidMinimize: Iter:  91  F: -0.003845100410497  |grad|_K:  1.067e-05  alpha:  5.083e-02  linmin:  2.134e-02  cgtest: -9.256e-02  t[s]:   5923.61
FluidMinimize: Iter:  92  F: -0.003846951781921  |grad|_K:  6.912e-06  alpha:  1.985e-02  linmin:  1.569e-03  cgtest:  4.539e-01  t[s]:   5923.93
FluidMinimize: Iter:  93  F: -0.003849448530770  |grad|_K:  7.678e-06  alpha:  5.689e-02  linmin:  2.188e-02  cgtest: -1.107e-01  t[s]:   5924.26
FluidMinimize: Iter:  94  F: -0.003851990647393  |grad|_K:  5.554e-06  alpha:  4.911e-02  linmin:  2.687e-03  cgtest:  1.713e-01  t[s]:   5924.60
FluidMinimize: Iter:  95  F: -0.003854392733321  |grad|_K:  7.537e-06  alpha:  7.858e-02  linmin: -2.090e-02  cgtest:  3.736e-03  t[s]:   5924.93
FluidMinimize: Iter:  96  F: -0.003855467969124  |grad|_K:  4.957e-06  alpha:  1.568e-02  linmin: -1.800e-02  cgtest:  1.336e-01  t[s]:   5925.25
FluidMinimize: 	Predicted alpha/alphaT>3.000000, increasing alphaT to 4.705116e-02.
FluidMinimize: Iter:  97  F: -0.003857160608129  |grad|_K:  6.821e-06  alpha:  6.332e-02  linmin: -4.673e-04  cgtest: -9.943e-02  t[s]:   5925.72
FluidMinimize: Iter:  98  F: -0.003859976423612  |grad|_K:  6.168e-06  alpha:  6.239e-02  linmin:  4.861e-03  cgtest:  2.293e-01  t[s]:   5926.04
FluidMinimize: Iter:  99  F: -0.003862599277500  |grad|_K:  9.271e-06  alpha:  7.162e-02  linmin: -1.595e-02  cgtest:  6.270e-02  t[s]:   5926.36
FluidMinimize: Iter: 100  F: -0.003864812952480  |grad|_K:  6.561e-06  alpha:  2.153e-02  linmin: -3.266e-02  cgtest:  1.668e-01  t[s]:   5926.68
FluidMinimize: None of the convergence criteria satisfied after 100 iterations.

Fluid minimization # 3 changed total free energy by -4.531950e-04 at t[s]:   5926.85

-------------------- Electronic Minimization # 3 ---------------------
	FillingsUpdate:  mu: -0.185982690  nElectrons: 331.000000
ElecMinimize: Iter:   0  F: -1802.667437266390152  |grad|_K:  1.420e-05  alpha:  1.000e+00
	FillingsUpdate:  mu: -0.184824959  nElectrons: 331.000000
	SubspaceRotationAdjust: set factor to 0.279
ElecMinimize: Iter:   1  F: -1802.668855951429805  |grad|_K:  1.417e-06  alpha:  1.440e-01  linmin:  1.374e-03  t[s]:   6507.12
	FillingsUpdate:  mu: -0.185052813  nElectrons: 331.000000
	SubspaceRotationAdjust: set factor to 0.321
ElecMinimize: Iter:   2  F: -1802.668893434109805  |grad|_K:  7.071e-07  alpha:  3.819e-01  linmin: -1.335e-05  t[s]:   6910.51
	FillingsUpdate:  mu: -0.184674455  nElectrons: 331.000000
	SubspaceRotationAdjust: set factor to 0.2
ElecMinimize: Iter:   3  F: -1802.668901740963292  |grad|_K:  8.984e-07  alpha:  3.387e-01  linmin: -1.069e-06  t[s]:   7315.90
	FillingsUpdate:  mu: -0.184735028  nElectrons: 331.000000
	SubspaceRotationAdjust: set factor to 0.133
ElecMinimize: Iter:   4  F: -1802.668905700414371  |grad|_K:  4.051e-07  alpha:  1.000e-01  linmin: -6.591e-08  t[s]:   7726.06
ElecMinimize: 	Predicted alpha/alphaT>3.000000, increasing alphaT to 3.000122e-01.
	FillingsUpdate:  mu: -0.184683499  nElectrons: 331.000000
	SubspaceRotationAdjust: set factor to 0.156
ElecMinimize: Iter:   5  F: -1802.668909429675750  |grad|_K:  2.853e-07  alpha:  4.632e-01  linmin: -1.322e-06  t[s]:   8232.51
	FillingsUpdate:  mu: -0.184579761  nElectrons: 331.000000
	SubspaceRotationAdjust: set factor to 0.122
ElecMinimize: Iter:   6  F: -1802.668910506786688  |grad|_K:  2.584e-07  alpha:  2.698e-01  linmin: -8.484e-08  t[s]:   8636.54
	FillingsUpdate:  mu: -0.184629131  nElectrons: 331.000000
	SubspaceRotationAdjust: set factor to 0.143
ElecMinimize: Iter:   7  F: -1802.668911632907793  |grad|_K:  1.591e-07  alpha:  3.437e-01  linmin: -2.495e-07  t[s]:   9044.07
	FillingsUpdate:  mu: -0.184652401  nElectrons: 331.000000
	SubspaceRotationAdjust: set factor to 0.17
ElecMinimize: Iter:   8  F: -1802.668912398399016  |grad|_K:  1.475e-07  alpha:  6.165e-01  linmin: -2.687e-06  t[s]:   9446.33
	FillingsUpdate:  mu: -0.184605914  nElectrons: 331.000000
	SubspaceRotationAdjust: set factor to 0.123
ElecMinimize: Iter:   9  F: -1802.668912833863487  |grad|_K:  1.714e-07  alpha:  4.079e-01  linmin:  3.048e-08  t[s]:   9852.87
ElecMinimize: Converged (|Delta F|<7.709785e-07 for 2 iters).
Setting wave functions to eigenvectors of Hamiltonian

Electronic minimization # 3 changed total free energy by -3.583342e-05 at t[s]:   9870.38

---------------------- Fluid Minimization # 4 -----------------------
FluidMinimize: Iter:   0  F: -0.004157067443254  |grad|_K:  1.019e-05  alpha:  1.000e+00
FluidMinimize: Iter:   1  F: -0.004157082329979  |grad|_K:  1.014e-05  alpha:  7.424e-05  linmin: -1.637e-01  cgtest:  1.000e+00  t[s]:   9870.88
FluidMinimize: Encountered beta<0, resetting CG.
FluidMinimize: 	Predicted alpha/alphaT>3.000000, increasing alphaT to 2.227094e-04.
FluidMinimize: 	Predicted alpha/alphaT>3.000000, increasing alphaT to 6.681282e-04.
FluidMinimize: 	Predicted alpha/alphaT>3.000000, increasing alphaT to 2.004385e-03.
FluidMinimize: 	Predicted alpha/alphaT>3.000000, increasing alphaT to 6.013154e-03.
FluidMinimize: Iter:   2  F: -0.004158389133889  |grad|_K:  7.117e-06  alpha:  1.349e-02  linmin:  8.699e-03  cgtest: -7.072e-02  t[s]:   9871.82
FluidMinimize: Converged (|Delta F|<4.531950e-06 for 2 iters).

Fluid minimization # 4 changed total free energy by -1.321691e-06 at t[s]:   9871.99

-------------------- Electronic Minimization # 4 ---------------------
	FillingsUpdate:  mu: -0.186123596  nElectrons: 331.000000
ElecMinimize: Iter:   0  F: -1802.668639798816230  |grad|_K:  6.376e-06  alpha:  1.000e+00
	FillingsUpdate:  mu: -0.184872118  nElectrons: 331.000000
	SubspaceRotationAdjust: set factor to 0.315
ElecMinimize: Iter:   1  F: -1802.668908894494507  |grad|_K:  5.271e-07  alpha:  1.351e-01  linmin:  4.423e-04  t[s]:  10455.95
	FillingsUpdate:  mu: -0.184859626  nElectrons: 331.000000
	SubspaceRotationAdjust: set factor to 0.35
ElecMinimize: Iter:   2  F: -1802.668913878408603  |grad|_K:  2.343e-07  alpha:  3.660e-01  linmin: -3.216e-06  t[s]:  10859.32
	FillingsUpdate:  mu: -0.184762646  nElectrons: 331.000000
	SubspaceRotationAdjust: set factor to 0.231
ElecMinimize: Iter:   3  F: -1802.668914793757267  |grad|_K:  2.673e-07  alpha:  3.400e-01  linmin:  2.659e-07  t[s]:  11264.83
	FillingsUpdate:  mu: -0.184801281  nElectrons: 331.000000
	SubspaceRotationAdjust: set factor to 0.125
ElecMinimize: Iter:   4  F: -1802.668915069946024  |grad|_K:  1.100e-07  alpha:  7.885e-02  linmin: -5.891e-07  t[s]:  11670.39
ElecMinimize: Converged (|Delta F|<4.531950e-06 for 2 iters).
Setting wave functions to eigenvectors of Hamiltonian

Electronic minimization # 4 changed total free energy by -9.143921e-07 at t[s]:  11687.45

Fluid<-->Electron self-consistency loop converged to 1.000000e-05 hartrees after 4 minimization pairs at t[s]:  11687.45.

# Ionic positions in lattice coordinates:
ion O   0.500000000000000   0.315534062330971   0.323234635007590 1
ion C   0.500000000000000   0.492538669854617   0.283194964654477 1
ion H   0.500000000000000   0.675309066792621   0.310406241087082 1
ion Pt   0.000000000000000   0.000000000000000  -0.166660000000000 0
ion Pt   0.000000000000000   0.500000000000000  -0.166660000000000 0
ion Pt   0.500000000000000   0.000000000000000  -0.166660000000000 0
ion Pt   0.500000000000000   0.500000000000000  -0.166660000000000 0
ion Pt   0.250000000000000   0.250000000000000  -0.083330000000000 0
ion Pt   0.250000000000000   0.750000000000000  -0.083330000000000 0
ion Pt   0.750000000000000   0.250000000000000  -0.083330000000000 0
ion Pt   0.750000000000000   0.750000000000000  -0.083330000000000 0
ion Pt   0.000000000000000  -0.000022104427924  -0.006934653844712 1
ion Pt   0.000000000000000   0.499962141678339  -0.007300148734374 1
ion Pt   0.500000000000000  -0.000358627222734  -0.006531289424062 1
ion Pt   0.500000000000000   0.499970729312246   0.000840279676279 1
ion Pt   0.253885118488629   0.254837553462420   0.087294520620819 1
ion Pt   0.254033678497233   0.747220670584545   0.087342089578191 1
ion Pt   0.746114881511371   0.254837553462420   0.087294520620819 1
ion Pt   0.745966321502767   0.747220670584545   0.087342089578191 1
ion Pt   0.000000000000000   0.000380364344304   0.149160572178569 1
ion Pt   0.000000000000000   0.500445926904242   0.149534130142147 1
ion Pt   0.500000000000000   0.003253947159944   0.151648107002621 1
ion Pt   0.500000000000000   0.502633750915627   0.166935127232437 1


# Forces in Lattice coordinates:
force O   0.000000000000000  -0.074150246644534   0.094189668902612 1
force C   0.000000000000000   0.070778700258661  -0.327632171293122 1
force H   0.000000000000000  -0.005204061702185  -0.056624166712939 1
force Pt   0.000000000000000   0.000028184890424   0.742195300812501 0
force Pt   0.000000000000000   0.000246060082960   0.736119423107732 0
force Pt   0.000000000000000  -0.000660485273335   0.771215463007567 0
force Pt   0.000000000000000   0.000325257706236   0.808700825888190 0
force Pt   0.067373863265615   0.022975401890618  -0.543936460644955 0
force Pt   0.065593140790316  -0.024007623515363  -0.545534504443547 0
force Pt  -0.067373863265615   0.022975401890618  -0.543936460644955 0
force Pt  -0.065593140790316  -0.024007623515363  -0.545534504443547 0
force Pt   0.000000000000000   0.000449592347119   0.062688481278881 1
force Pt   0.000000000000000   0.000477488274778   0.098280020704350 1
force Pt   0.000000000000000   0.002623045212929   0.129626766691358 1
force Pt   0.000000000000000   0.001449330383061  -0.107398888881149 1
force Pt  -0.015570952527485  -0.012480940505150  -0.123413603145363 1
force Pt  -0.013695006672995   0.016877777307158  -0.123210286898846 1
force Pt   0.015570952527485  -0.012480940505150  -0.123413603145363 1
force Pt   0.013695006672995   0.016877777307158  -0.123210286898846 1
force Pt   0.000000000000000   0.002895325537783  -0.023767952986292 1
force Pt   0.000000000000000   0.004444468811739  -0.042563989678969 1
force Pt   0.000000000000000  -0.003378737919961  -0.000443305178399 1
force Pt   0.000000000000000  -0.008039182063616  -0.043630430822091 1

# Energy components:
   A_diel =       -0.0041942616569336
   Eewald =     2191.1776666820337596
       EH =     3853.9079473193205558
     Eloc =    -8163.3226401743422684
      Enl =      -18.0492839959615274
      Exc =     -571.3525824895971255
 Exc_core =      324.9287951827807888
       KE =      580.2913114670717505
  MuShift =       -0.0000000000024299
-------------------------------------
     Etot =    -1802.4229802703528094
       TS =        0.2459347995933042
-------------------------------------
        F =    -1802.6689150699460242

IonicMinimize: Iter:   0  F: -1802.668915069946024  |grad|_K:  2.702e-03  t[s]:  11735.45
IonicMinimize: None of the convergence criteria satisfied after 0 iterations.

#--- Lowdin population analysis ---
# oxidation-state O -0.225
# oxidation-state C +0.258
# oxidation-state H +0.257
# oxidation-state Pt +0.079 +0.078 +0.074 +0.059 -0.051 -0.051 -0.051 -0.051 +0.010 +0.003 +0.001 -0.026 -0.048 -0.050 -0.048 -0.050 +0.069 +0.077 +0.060 -0.022


Dumping '100_0-Solvated.ionpos' ... done
Dumping '100_0-Solvated.n' ... done
Dumping '100_0-Solvated.eigStats' ... 
	eMin: -2.131068 at state 0 ( [ +0.000000 +0.000000 +0.000000 ] spin 0 )
	HOMO: -0.184828 at state 6 ( [ +0.500000 +0.000000 +0.000000 ] spin 0 )
	mu  : -0.184801
	LUMO: -0.184522 at state 1 ( [ +0.000000 +0.250000 +0.000000 ] spin 0 )
	eMax: +0.334302 at state 8 ( [ +0.500000 +0.500000 +0.000000 ] spin 0 )
	HOMO-LUMO gap: +0.000306
	Optical gap  : +0.000478 at state 6 ( [ +0.500000 +0.000000 +0.000000 ] spin 0 )
Dumping '100_0-Solvated.Ecomponents' ... done
End date and time: Sat Jun  1 06:04:41 2019  (Duration: 0-3:16:33.48)
Done!
