--------------------------------------------------------------------------
Initialization of PSM library failed.

  Error: PSM is in the finalized state
--------------------------------------------------------------------------
[node2015][[16624,1],0][btl_openib.c:880:mca_btl_openib_add_procs] could not prepare openib device for use
--------------------------------------------------------------------------
The OpenFabrics (openib) BTL failed to initialize while trying to
allocate some locked memory.  This typically can indicate that the
memlock limits are set too low.  For most HPC installations, the
memlock limits should be set to "unlimited".  The failure occured
here:

  Local host:    node2015
  OMPI source:   btl_openib.c:753
  Function:      ompi_free_list_init_ex_new()
  Device:        qib0
  Memlock limit: 65536

You may need to consult with your system administrator to get this
problem fixed.  This FAQ entry on the Open MPI web site may also be
helpful:

    http://www.open-mpi.org/faq/?category=openfabrics#ib-locked-pages
--------------------------------------------------------------------------

*************** JDFTx 1.4.2 (git hash 74b6e54) ***************

Start date and time: Fri Apr 26 00:38:57 2019
Executable /home/jfm343/JDFTXDIR/build/jdftx with command-line: -i Vacuum.in
Running on hosts (process indices):  node2015.physics.cornell.edu (0)
Divided in process groups (process indices):  0 (0)
Resource initialization completed at t[s]:      0.00
Run totals: 1 processes, 12 threads, 0 GPUs


Input parsed successfully to the following command list (including defaults):

basis kpoint-dependent
coords-type Lattice
core-overlap-check vector
coulomb-interaction Slab 001
coulomb-truncation-embed 0 0 0
davidson-band-ratio 1.1
dump End State IonicPositions ElecDensity EigStats Ecomponents
dump-name 111_3-Vacuum.$VAR
elec-cutoff 20 100
elec-eigen-algo Davidson
elec-ex-corr gga-PBEsol
elec-smearing Fermi 0.01
electronic-minimize  \
	dirUpdateScheme      FletcherReeves \
	linminMethod         DirUpdateRecommended \
	nIterations          200 \
	history              15 \
	knormThreshold       0 \
	energyDiffThreshold  1e-08 \
	nEnergyDiff          2 \
	alphaTstart          1 \
	alphaTmin            1e-10 \
	updateTestStepSize   yes \
	alphaTreduceFactor   0.1 \
	alphaTincreaseFactor 3 \
	nAlphaAdjustMax      3 \
	wolfeEnergy          0.0001 \
	wolfeGradient        0.9 \
	fdTest               no
exchange-regularization WignerSeitzTruncated
fluid None
fluid-ex-corr lda-TF lda-PZ
fluid-gummel-loop 10 1.000000e-05
fluid-minimize  \
	dirUpdateScheme      PolakRibiere \
	linminMethod         DirUpdateRecommended \
	nIterations          100 \
	history              15 \
	knormThreshold       0 \
	energyDiffThreshold  0 \
	nEnergyDiff          2 \
	alphaTstart          1 \
	alphaTmin            1e-10 \
	updateTestStepSize   yes \
	alphaTreduceFactor   0.1 \
	alphaTincreaseFactor 3 \
	nAlphaAdjustMax      3 \
	wolfeEnergy          0.0001 \
	wolfeGradient        0.9 \
	fdTest               no
fluid-solvent H2O 55.338 ScalarEOS \
	epsBulk 78.4 \
	pMol 0.92466 \
	epsInf 1.77 \
	Pvap 1.06736e-10 \
	sigmaBulk 4.62e-05 \
	Rvdw 2.61727 \
	Res 1.42 \
	tauNuc 343133 \
	omegaEl 0.55124 \
	gammaEl 0.257245
forces-output-coords Positions
ion O   0.500000000000000   0.500000000000000   0.331487165900000 1
ion C   0.500000000000000   0.500000000000000   0.281000000000000 1
ion Pt   0.333300000000000   0.166700000000000  -0.200100000000000 0
ion Pt   0.333300000000000   0.666700000000000  -0.200100000000000 0
ion Pt   0.833300000000000   0.166700000000000  -0.200100000000000 0
ion Pt   0.833300000000000   0.666700000000000  -0.200100000000000 0
ion Pt   0.000000000000000   0.000000000000000  -0.100000000000000 0
ion Pt   0.000000000000000   0.500000000000000  -0.100000000000000 0
ion Pt   0.500000000000000   0.000000000000000  -0.100000000000000 0
ion Pt   0.500000000000000   0.500000000000000  -0.100000000000000 0
ion Pt   0.166700000000000   0.333300000000000   0.000000000000000 1
ion Pt   0.166700000000000   0.833300000000000   0.000000000000000 1
ion Pt   0.666700000000000   0.333300000000000   0.000000000000000 1
ion Pt   0.666700000000000   0.833300000000000   0.000000000000000 1
ion Pt   0.333300000000000   0.166700000000000   0.100000000000000 1
ion Pt   0.333300000000000   0.666700000000000   0.100000000000000 1
ion Pt   0.833300000000000   0.166700000000000   0.100000000000000 1
ion Pt   0.833300000000000   0.666700000000000   0.100000000000000 1
ion Pt   0.000000000000000   0.000000000000000   0.200100000000000 1
ion Pt   0.000000000000000   0.500000000000000   0.200100000000000 1
ion Pt   0.500000000000000   0.000000000000000   0.200100000000000 1
ion Pt   0.500000000000000   0.500000000000000   0.200100000000000 1
ion-species GBRV/$ID_pbesol.uspp
ion-width 0
ionic-minimize  \
	dirUpdateScheme      L-BFGS \
	linminMethod         DirUpdateRecommended \
	nIterations          5 \
	history              15 \
	knormThreshold       0.0001 \
	energyDiffThreshold  1e-06 \
	nEnergyDiff          2 \
	alphaTstart          1 \
	alphaTmin            1e-10 \
	updateTestStepSize   yes \
	alphaTreduceFactor   0.1 \
	alphaTincreaseFactor 3 \
	nAlphaAdjustMax      3 \
	wolfeEnergy          0.0001 \
	wolfeGradient        0.9 \
	fdTest               no
kpoint   0.000000000000   0.000000000000   0.000000000000  1.00000000000000
kpoint-folding 4 4 1 
latt-move-scale 1 1 1
latt-scale 1 1 1 
lattice Hexagonal 10.4793 42.7686
lattice-minimize  \
	dirUpdateScheme      L-BFGS \
	linminMethod         DirUpdateRecommended \
	nIterations          0 \
	history              15 \
	knormThreshold       0 \
	energyDiffThreshold  1e-06 \
	nEnergyDiff          2 \
	alphaTstart          1 \
	alphaTmin            1e-10 \
	updateTestStepSize   yes \
	alphaTreduceFactor   0.1 \
	alphaTincreaseFactor 3 \
	nAlphaAdjustMax      3 \
	wolfeEnergy          0.0001 \
	wolfeGradient        0.9 \
	fdTest               no
lcao-params -1 1e-06 0.01
pcm-variant GLSSA13
spintype no-spin
subspace-rotation-factor 1 yes
symmetries automatic
symmetry-threshold 0.0001



---------- Setting up symmetries ----------

Found 24 point-group symmetries of the bravais lattice
Found 2 space-group symmetries with basis
Applied RMS atom displacement 0 bohrs to make symmetries exact.

---------- Initializing the Grid ----------
R = 
[    10.4793   -5.23966          0  ]
[          0    9.07536          0  ]
[          0          0    42.7686  ]
unit cell volume = 4067.45
G =
[   0.599579   0.346167         -0  ]
[          0   0.692335          0  ]
[          0         -0   0.146911  ]
Minimum fftbox size, Smin = [  48  48  196  ]
Chosen fftbox size, S = [  48  48  196  ]

---------- Initializing tighter grid for wavefunction operations ----------
R = 
[    10.4793   -5.23966          0  ]
[          0    9.07536          0  ]
[          0          0    42.7686  ]
unit cell volume = 4067.45
G =
[   0.599579   0.346167         -0  ]
[          0   0.692335          0  ]
[          0         -0   0.146911  ]
Minimum fftbox size, Smin = [  44  44  176  ]
Chosen fftbox size, S = [  48  48  180  ]

---------- Exchange Correlation functional ----------
Initalized PBEsol GGA exchange.
Initalized PBEsol GGA correlation.

---------- Setting up pseudopotentials ----------
Width of ionic core gaussian charges (only for fluid interactions / plotting) set to 0

Reading pseudopotential file '/home/jfm343/JDFTXDIR/build/pseudopotentials/GBRV/o_pbesol.uspp':
  Title: O.  Created by USPP 7.3.6 on 3-2-2014
  Reference state energy: -15.849885.  6 valence electrons in orbitals:
    |200>  occupation: 2  eigenvalue: -0.873214
    |210>  occupation: 4  eigenvalue: -0.330058
  lMax: 2  lLocal: 2  QijEcut: 6
  5 projectors sampled on a log grid with 511 points:
    l: 0  eig: -0.873214  rCut: 1.25
    l: 0  eig: 0.000000  rCut: 1.25
    l: 1  eig: -0.330058  rCut: 1.25
    l: 1  eig: 0.000000  rCut: 1.25
    l: 2  eig: 1.000000  rCut: 1.25
  Partial core density with radius 0.7
  Transforming core density to a uniform radial grid of dG=0.02 with 1615 points.
  Transforming local potential to a uniform radial grid of dG=0.02 with 1615 points.
  Transforming nonlocal projectors to a uniform radial grid of dG=0.02 with 432 points.
  Transforming density augmentations to a uniform radial grid of dG=0.02 with 1615 points.
  Transforming atomic orbitals to a uniform radial grid of dG=0.02 with 432 points.
  Core radius for overlap checks: 1.25 bohrs.

Reading pseudopotential file '/home/jfm343/JDFTXDIR/build/pseudopotentials/GBRV/c_pbesol.uspp':
  Title: C.  Created by USPP 7.3.6 on 3-2-2014
  Reference state energy: -5.383511.  4 valence electrons in orbitals:
    |200>  occupation: 2  eigenvalue: -0.501126
    |210>  occupation: 2  eigenvalue: -0.192448
  lMax: 1  lLocal: 2  QijEcut: 5
  4 projectors sampled on a log grid with 503 points:
    l: 0  eig: -0.501126  rCut: 1.3
    l: 0  eig: 0.000000  rCut: 1.3
    l: 1  eig: -0.192448  rCut: 1.3
    l: 1  eig: 0.000000  rCut: 1.3
  Partial core density with radius 1.1
  Transforming core density to a uniform radial grid of dG=0.02 with 1615 points.
  Transforming local potential to a uniform radial grid of dG=0.02 with 1615 points.
  Transforming nonlocal projectors to a uniform radial grid of dG=0.02 with 432 points.
  Transforming density augmentations to a uniform radial grid of dG=0.02 with 1615 points.
  Transforming atomic orbitals to a uniform radial grid of dG=0.02 with 432 points.
  Core radius for overlap checks: 1.30 bohrs.

Reading pseudopotential file '/home/jfm343/JDFTXDIR/build/pseudopotentials/GBRV/pt_pbesol.uspp':
  Title: Pt.  Created by USPP 7.3.6 on 22-9-15
  Reference state energy: -104.899005.  16 valence electrons in orbitals:
    |510>  occupation: 6  eigenvalue: -2.158847
    |520>  occupation: 9.5  eigenvalue: -0.336311
    |600>  occupation: 0  eigenvalue: -0.320324
    |610>  occupation: 0  eigenvalue: -0.119800
  lMax: 2  lLocal: 3  QijEcut: 5.5
  6 projectors sampled on a log grid with 745 points:
    l: 0  eig: -0.320324  rCut: 2.45
    l: 0  eig: 1.500000  rCut: 2.45
    l: 1  eig: -2.158847  rCut: 1.6
    l: 1  eig: -0.119800  rCut: 1.6
    l: 2  eig: -0.500000  rCut: 1.6
    l: 2  eig: -0.336311  rCut: 1.6
  Partial core density with radius 1.1
  Transforming core density to a uniform radial grid of dG=0.02 with 1615 points.
  Transforming local potential to a uniform radial grid of dG=0.02 with 1615 points.
  Transforming nonlocal projectors to a uniform radial grid of dG=0.02 with 432 points.
  Transforming density augmentations to a uniform radial grid of dG=0.02 with 1615 points.
  Transforming atomic orbitals to a uniform radial grid of dG=0.02 with 432 points.
  Core radius for overlap checks: 2.45 bohrs.

Initialized 3 species with 22 total atoms.

Folded 1 k-points by 4x4x1 to 16 k-points.

---------- Setting up k-points, bands, fillings ----------
Adding inversion symmetry to k-mesh for non-inversion-symmetric unit cell.
Reduced to 7 k-points under symmetry. 
Computing the number of bands and number of electrons
Calculating initial fillings.
nElectrons: 330.000000   nBands: 248   nStates: 7

----- Setting up reduced wavefunction bases (one per k-point) -----
average nbasis = 17373.562 , ideal nbasis = 17376.449

---------- Setting up coulomb interaction ----------
Setting up double-sized grid for truncated Coulomb potentials:
R = 
[    10.4793   -5.23966          0  ]
[          0    9.07536          0  ]
[          0          0    85.5372  ]
unit cell volume = 8134.9
G =
[   0.599579   0.346167         -0  ]
[          0   0.692335          0  ]
[          0         -0  0.0734556  ]
Chosen fftbox size, S = [  48  48  392  ]
Integer grid location selected as the embedding center:
   Grid: [  0  0  0  ]
   Lattice: [  0  0  0  ]
   Cartesian: [  0  0  0  ]
Constructing Wigner-Seitz cell: 8 faces (6 quadrilaterals, 2 hexagons)
Range-separation parameter for embedded mesh potentials due to point charges: 0.589462 bohrs.
Initialized slab truncation along lattice direction 001

---------- Setting up 2D ewald sum ----------
Optimum gaussian width for ewald sums = 5.817695 bohr.
Real space sums over 289 unit cells with max indices [  8  8  0  ]
Reciprocal space sums over 81 terms with max indices [  4  4  0  ]

---------- Allocating electronic variables ----------
Initializing wave functions:  linear combination of atomic orbitals
O pseudo-atom occupations:   s ( 2 )  p ( 4 )
C pseudo-atom occupations:   s ( 2 )  p ( 2 )
Pt pseudo-atom occupations:   s ( 0 )  p ( 6 0 )  d ( 10 )
	FillingsUpdate:  mu: -2.913615025  nElectrons: 330.000000
LCAOMinimize: Iter:   0  F: -1786.1384750515283031  |grad|_K:  5.985e-02  alpha:  1.000e+00
LCAOMinimize: 	Step increased F by 9.652068e+02, reducing alpha to 1.542081e-02.
LCAOMinimize: 	Step increased F by 5.968747e-01, reducing alpha to 1.542081e-03.
	FillingsUpdate:  mu: -2.889273803  nElectrons: 330.000000
LCAOMinimize: Iter:   1  F: -1788.3897207615109437  |grad|_K:  5.083e-02  alpha:  1.542e-03  linmin: -2.487e-01  cgtest:  9.524e-01  t[s]:    319.70
LCAOMinimize: Encountered beta<0, resetting CG.
LCAOMinimize: 	Predicted alpha/alphaT>3.000000, increasing alphaT to 4.626243e-03.
	FillingsUpdate:  mu: -1.440147722  nElectrons: 330.000000
LCAOMinimize: Iter:   2  F: -1793.2233243075068003  |grad|_K:  5.796e-02  alpha:  1.214e-02  linmin:  9.245e-02  cgtest: -3.885e-01  t[s]:    404.86
	FillingsUpdate:  mu: +0.107709918  nElectrons: 330.000000
LCAOMinimize: Iter:   3  F: -1794.7903453079775318  |grad|_K:  5.994e-02  alpha:  5.989e-03  linmin:  2.006e-03  cgtest:  9.229e-01  t[s]:    472.50
	FillingsUpdate:  mu: -0.410419155  nElectrons: 330.000000
LCAOMinimize: Iter:   4  F: -1798.7163093934775588  |grad|_K:  1.316e-02  alpha:  5.015e-03  linmin:  1.361e-02  cgtest:  1.518e-02  t[s]:    541.21
LCAOMinimize: 	Predicted alpha/alphaT>3.000000, increasing alphaT to 1.504356e-02.
	FillingsUpdate:  mu: -0.933158675  nElectrons: 330.000000
LCAOMinimize: Iter:   5  F: -1800.0789775682562777  |grad|_K:  1.048e-02  alpha:  4.168e-02  linmin:  7.274e-02  cgtest: -1.260e-01  t[s]:    626.18
	FillingsUpdate:  mu: -0.655575648  nElectrons: 330.000000
LCAOMinimize: Iter:   6  F: -1800.6712646474541089  |grad|_K:  1.476e-02  alpha:  3.428e-02  linmin: -6.053e-03  cgtest:  3.173e-01  t[s]:    693.97
	FillingsUpdate:  mu: -0.413721193  nElectrons: 330.000000
LCAOMinimize: Iter:   7  F: -1801.1683914009415730  |grad|_K:  7.125e-03  alpha:  9.680e-03  linmin: -9.518e-03  cgtest: -3.263e-01  t[s]:    760.82
	FillingsUpdate:  mu: -0.261163931  nElectrons: 330.000000
LCAOMinimize: Iter:   8  F: -1801.3783102865643286  |grad|_K:  2.841e-03  alpha:  1.796e-02  linmin: -3.739e-03  cgtest: -1.717e-01  t[s]:    828.90
LCAOMinimize: 	Predicted alpha/alphaT>3.000000, increasing alphaT to 5.388965e-02.
LCAOMinimize: 	Predicted alpha/alphaT>3.000000, increasing alphaT to 1.616689e-01.
	FillingsUpdate:  mu: -0.117149507  nElectrons: 330.000000
LCAOMinimize: Iter:   9  F: -1801.6676859952842733  |grad|_K:  3.673e-03  alpha:  1.629e-01  linmin:  1.930e-04  cgtest: -3.573e-02  t[s]:    930.01
	FillingsUpdate:  mu: -0.128915522  nElectrons: 330.000000
LCAOMinimize: Iter:  10  F: -1801.6832517138375351  |grad|_K:  3.169e-03  alpha:  9.833e-03  linmin:  5.100e-02  cgtest: -5.304e-01  t[s]:    994.84
	FillingsUpdate:  mu: -0.102375150  nElectrons: 330.000000
LCAOMinimize: Iter:  11  F: -1801.6877622083648021  |grad|_K:  4.480e-03  alpha:  7.579e-03  linmin:  3.276e-06  cgtest:  9.860e-01  t[s]:   1063.57
	FillingsUpdate:  mu: -0.144417359  nElectrons: 330.000000
LCAOMinimize: Iter:  12  F: -1801.7222057699686957  |grad|_K:  2.095e-03  alpha:  7.907e-03  linmin: -1.516e-03  cgtest: -2.996e-01  t[s]:   1131.00
LCAOMinimize: 	Predicted alpha/alphaT>3.000000, increasing alphaT to 2.371958e-02.
LCAOMinimize: 	Predicted alpha/alphaT>3.000000, increasing alphaT to 7.115874e-02.
	FillingsUpdate:  mu: -0.148507703  nElectrons: 330.000000
LCAOMinimize: Iter:  13  F: -1801.8376808596165120  |grad|_K:  1.370e-03  alpha:  1.224e-01  linmin:  7.888e-03  cgtest: -3.967e-01  t[s]:   1231.42
	FillingsUpdate:  mu: -0.168833279  nElectrons: 330.000000
LCAOMinimize: Iter:  14  F: -1801.8434236373125259  |grad|_K:  1.458e-03  alpha:  1.477e-02  linmin: -1.704e-03  cgtest:  8.135e-02  t[s]:   1296.19
	FillingsUpdate:  mu: -0.219999382  nElectrons: 330.000000
LCAOMinimize: Iter:  15  F: -1801.8514726175062606  |grad|_K:  9.711e-04  alpha:  1.713e-02  linmin: -5.837e-04  cgtest: -1.347e-01  t[s]:   1362.63
	FillingsUpdate:  mu: -0.244499126  nElectrons: 330.000000
LCAOMinimize: Iter:  16  F: -1801.8588065010533228  |grad|_K:  1.470e-03  alpha:  3.611e-02  linmin:  1.486e-03  cgtest:  1.964e-02  t[s]:   1429.51
	FillingsUpdate:  mu: -0.267546635  nElectrons: 330.000000
LCAOMinimize: Iter:  17  F: -1801.8641393703537688  |grad|_K:  7.565e-04  alpha:  1.130e-02  linmin: -3.178e-03  cgtest:  1.593e-01  t[s]:   1495.00
	FillingsUpdate:  mu: -0.252025837  nElectrons: 330.000000
LCAOMinimize: Iter:  18  F: -1801.8671256766399438  |grad|_K:  6.784e-04  alpha:  2.371e-02  linmin:  9.489e-04  cgtest: -3.956e-02  t[s]:   1562.37
	FillingsUpdate:  mu: -0.246334122  nElectrons: 330.000000
LCAOMinimize: Iter:  19  F: -1801.8681802256076026  |grad|_K:  5.371e-04  alpha:  1.057e-02  linmin: -5.061e-04  cgtest:  1.991e-02  t[s]:   1629.31
LCAOMinimize: 	Predicted alpha/alphaT>3.000000, increasing alphaT to 3.171287e-02.
	FillingsUpdate:  mu: -0.247267900  nElectrons: 330.000000
LCAOMinimize: Iter:  20  F: -1801.8714740740670095  |grad|_K:  4.454e-04  alpha:  5.243e-02  linmin: -4.227e-04  cgtest: -2.681e-02  t[s]:   1710.51
	FillingsUpdate:  mu: -0.250167353  nElectrons: 330.000000
LCAOMinimize: Iter:  21  F: -1801.8718840887024726  |grad|_K:  3.240e-04  alpha:  9.480e-03  linmin: -3.779e-04  cgtest: -5.893e-04  t[s]:   1776.73
	FillingsUpdate:  mu: -0.257493040  nElectrons: 330.000000
LCAOMinimize: Iter:  22  F: -1801.8723573130801014  |grad|_K:  1.995e-04  alpha:  2.073e-02  linmin:  1.520e-04  cgtest:  5.903e-03  t[s]:   1844.10
	FillingsUpdate:  mu: -0.253900336  nElectrons: 330.000000
LCAOMinimize: Iter:  23  F: -1801.8726562432366336  |grad|_K:  3.019e-04  alpha:  3.463e-02  linmin:  5.530e-05  cgtest:  3.579e-03  t[s]:   1910.65
	FillingsUpdate:  mu: -0.251453761  nElectrons: 330.000000
LCAOMinimize: Iter:  24  F: -1801.8728544940195206  |grad|_K:  1.326e-04  alpha:  1.010e-02  linmin:  1.259e-03  cgtest: -1.823e-02  t[s]:   1977.08
LCAOMinimize: 	Predicted alpha/alphaT>3.000000, increasing alphaT to 3.028793e-02.
	FillingsUpdate:  mu: -0.244754571  nElectrons: 330.000000
LCAOMinimize: Iter:  25  F: -1801.8730566214940154  |grad|_K:  2.172e-04  alpha:  5.329e-02  linmin:  7.763e-05  cgtest:  4.907e-03  t[s]:   2060.15
	FillingsUpdate:  mu: -0.243122287  nElectrons: 330.000000
LCAOMinimize: Iter:  26  F: -1801.8732075991208603  |grad|_K:  2.331e-04  alpha:  1.485e-02  linmin:  2.761e-04  cgtest: -4.579e-03  t[s]:   2127.43
	FillingsUpdate:  mu: -0.246436637  nElectrons: 330.000000
LCAOMinimize: Iter:  27  F: -1801.8735440254820332  |grad|_K:  1.127e-04  alpha:  2.875e-02  linmin:  9.890e-04  cgtest: -1.914e-02  t[s]:   2193.89
	FillingsUpdate:  mu: -0.248159499  nElectrons: 330.000000
LCAOMinimize: Iter:  28  F: -1801.8735795559405233  |grad|_K:  1.137e-04  alpha:  1.301e-02  linmin:  7.310e-05  cgtest:  3.274e-03  t[s]:   2259.67
	FillingsUpdate:  mu: -0.251985730  nElectrons: 330.000000
LCAOMinimize: Iter:  29  F: -1801.8736478030393755  |grad|_K:  1.048e-04  alpha:  2.434e-02  linmin: -4.518e-05  cgtest: -1.073e-02  t[s]:   2327.01
	FillingsUpdate:  mu: -0.253306594  nElectrons: 330.000000
LCAOMinimize: Iter:  30  F: -1801.8737507537884994  |grad|_K:  1.602e-04  alpha:  4.324e-02  linmin:  1.153e-04  cgtest: -9.331e-04  t[s]:   2393.78
LCAOMinimize: None of the convergence criteria satisfied after 30 iterations.


---- Citations for features of the code used in this run ----

   Software package:
      R. Sundararaman, K. Letchworth-Weaver, K.A. Schwarz, D. Gunceler, Y. Ozhabes and T.A. Arias, 'JDFTx: software for joint density-functional theory', SoftwareX 6, 278 (2017)

   gga-PBEsol exchange-correlation functional:
      J.P. Perdew et al., Phys. Rev. Lett. 100, 136406 (2008)

   Pseudopotentials:
      KF Garrity, JW Bennett, KM Rabe and D Vanderbilt, Comput. Mater. Sci. 81, 446 (2014)

   Truncated Coulomb potentials:
      R. Sundararaman and T.A. Arias, Phys. Rev. B 87, 165122 (2013)

   Total energy minimization with Auxiliary Hamiltonian:
      C. Freysoldt, S. Boeck, and J. Neugebauer, Phys. Rev. B 79, 241103(R) (2009)

This list may not be complete. Please suggest additional citations or
report any other bugs at https://github.com/shankar1729/jdftx/issues

Initialization completed successfully at t[s]:   2447.10


-------- Electronic minimization -----------
	FillingsUpdate:  mu: -0.253306592  nElectrons: 330.000000
ElecMinimize: Iter:   0  F: -1801.873750753810327  |grad|_K:  1.715e-04  alpha:  1.000e+00
	FillingsUpdate:  mu: -0.078699339  nElectrons: 330.000000
	SubspaceRotationAdjust: set factor to 0.508
ElecMinimize: Iter:   1  F: -1802.132633908473736  |grad|_K:  7.143e-04  alpha:  2.892e-01  linmin:  2.279e-06  t[s]:   2812.90
	FillingsUpdate:  mu: -0.094249353  nElectrons: 330.000000
	SubspaceRotationAdjust: set factor to 0.198
ElecMinimize: Iter:   2  F: -1802.206005160071300  |grad|_K:  3.289e-04  alpha:  1.120e-02  linmin:  2.339e-03  t[s]:   3061.07
	FillingsUpdate:  mu: -0.146734408  nElectrons: 330.000000
	SubspaceRotationAdjust: set factor to 0.306
ElecMinimize: Iter:   3  F: -1802.223491866990344  |grad|_K:  1.196e-04  alpha:  1.256e-02  linmin: -2.137e-06  t[s]:   3311.28
	FillingsUpdate:  mu: -0.151920194  nElectrons: 330.000000
	SubspaceRotationAdjust: set factor to 0.25
ElecMinimize: Iter:   4  F: -1802.238821040081575  |grad|_K:  1.343e-04  alpha:  3.515e-02  linmin: -2.292e-05  t[s]:   3560.25
ElecMinimize: 	Predicted alpha/alphaT>3.000000, increasing alphaT to 1.054354e-01.
	FillingsUpdate:  mu: -0.211987157  nElectrons: 330.000000
	SubspaceRotationAdjust: set factor to 0.149
ElecMinimize: Iter:   5  F: -1802.297878515368438  |grad|_K:  1.183e-04  alpha:  1.072e-01  linmin:  2.822e-06  t[s]:   3872.94
	FillingsUpdate:  mu: -0.231388705  nElectrons: 330.000000
	SubspaceRotationAdjust: set factor to 0.117
	SubspaceRotationAdjust: resetting CG because factor has changed by 0.117127
ElecMinimize: 	State modified externally: resetting search direction.
ElecMinimize: Iter:   6  F: -1802.310257613884460  |grad|_K:  6.428e-05  alpha:  2.906e-02
ElecMinimize: 	Predicted alpha/alphaT>3.000000, increasing alphaT to 8.717307e-02.
	FillingsUpdate:  mu: -0.189321605  nElectrons: 330.000000
	SubspaceRotationAdjust: set factor to 0.0755
ElecMinimize: Iter:   7  F: -1802.324820988352485  |grad|_K:  6.056e-05  alpha:  1.163e-01  linmin:  3.381e-04  t[s]:   4531.65
	FillingsUpdate:  mu: -0.179095563  nElectrons: 330.000000
	SubspaceRotationAdjust: set factor to 0.0451
ElecMinimize: Iter:   8  F: -1802.334265278233261  |grad|_K:  2.309e-05  alpha:  8.524e-02  linmin:  3.294e-05  t[s]:   4783.87
ElecMinimize: 	Predicted alpha/alphaT>3.000000, increasing alphaT to 2.557328e-01.
	FillingsUpdate:  mu: -0.195225244  nElectrons: 330.000000
	SubspaceRotationAdjust: set factor to 0.0642
ElecMinimize: Iter:   9  F: -1802.341401214885309  |grad|_K:  1.607e-05  alpha:  4.415e-01  linmin:  3.677e-05  t[s]:   5097.91
	FillingsUpdate:  mu: -0.197696074  nElectrons: 330.000000
	SubspaceRotationAdjust: set factor to 0.0499
ElecMinimize: Iter:  10  F: -1802.343418333667159  |grad|_K:  1.827e-05  alpha:  2.577e-01  linmin: -3.507e-06  t[s]:   5347.12
	FillingsUpdate:  mu: -0.203737413  nElectrons: 330.000000
	SubspaceRotationAdjust: set factor to 0.0364
ElecMinimize: Iter:  11  F: -1802.345889621563629  |grad|_K:  1.133e-05  alpha:  2.437e-01  linmin:  7.467e-06  t[s]:   5600.90
	FillingsUpdate:  mu: -0.196936067  nElectrons: 330.000000
	SubspaceRotationAdjust: set factor to 0.0351
ElecMinimize: Iter:  12  F: -1802.347477429542096  |grad|_K:  8.447e-06  alpha:  4.077e-01  linmin:  1.336e-05  t[s]:   5848.14
	FillingsUpdate:  mu: -0.195787216  nElectrons: 330.000000
	SubspaceRotationAdjust: set factor to 0.0309
ElecMinimize: Iter:  13  F: -1802.348514229541706  |grad|_K:  1.041e-05  alpha:  4.790e-01  linmin: -3.197e-06  t[s]:   6098.40
	FillingsUpdate:  mu: -0.199487371  nElectrons: 330.000000
	SubspaceRotationAdjust: set factor to 0.0267
ElecMinimize: Iter:  14  F: -1802.349984271733092  |grad|_K:  9.765e-06  alpha:  4.465e-01  linmin: -1.358e-05  t[s]:   6349.19
	FillingsUpdate:  mu: -0.206895933  nElectrons: 330.000000
	SubspaceRotationAdjust: set factor to 0.0284
ElecMinimize: Iter:  15  F: -1802.352103704875162  |grad|_K:  8.944e-06  alpha:  7.212e-01  linmin: -7.242e-05  t[s]:   6603.01
	FillingsUpdate:  mu: -0.209172181  nElectrons: 330.000000
	SubspaceRotationAdjust: set factor to 0.0295
ElecMinimize: Iter:  16  F: -1802.353466700129957  |grad|_K:  7.855e-06  alpha:  5.489e-01  linmin: -1.012e-05  t[s]:   6856.68
	FillingsUpdate:  mu: -0.208196837  nElectrons: 330.000000
	SubspaceRotationAdjust: set factor to 0.0274
ElecMinimize: Iter:  17  F: -1802.354488567361841  |grad|_K:  7.076e-06  alpha:  5.433e-01  linmin: -1.413e-05  t[s]:   7114.72
	FillingsUpdate:  mu: -0.208358847  nElectrons: 330.000000
	SubspaceRotationAdjust: set factor to 0.021
ElecMinimize: Iter:  18  F: -1802.355042328124455  |grad|_K:  5.657e-06  alpha:  3.631e-01  linmin: -4.843e-07  t[s]:   7367.74
	FillingsUpdate:  mu: -0.208322936  nElectrons: 330.000000
	SubspaceRotationAdjust: set factor to 0.0214
ElecMinimize: Iter:  19  F: -1802.355443282748638  |grad|_K:  3.719e-06  alpha:  4.122e-01  linmin: -5.283e-06  t[s]:   7624.10
	FillingsUpdate:  mu: -0.207926922  nElectrons: 330.000000
	SubspaceRotationAdjust: set factor to 0.024
ElecMinimize: Iter:  20  F: -1802.355680861345718  |grad|_K:  3.160e-06  alpha:  5.642e-01  linmin: -7.501e-06  t[s]:   7872.46
	FillingsUpdate:  mu: -0.207693861  nElectrons: 330.000000
	SubspaceRotationAdjust: set factor to 0.0237
ElecMinimize: Iter:  21  F: -1802.355834507082136  |grad|_K:  2.934e-06  alpha:  5.055e-01  linmin: -3.675e-06  t[s]:   8123.12
	FillingsUpdate:  mu: -0.207849072  nElectrons: 330.000000
	SubspaceRotationAdjust: set factor to 0.0227
ElecMinimize: Iter:  22  F: -1802.355962782338565  |grad|_K:  2.560e-06  alpha:  4.899e-01  linmin: -2.698e-06  t[s]:   8373.41
	FillingsUpdate:  mu: -0.208248939  nElectrons: 330.000000
	SubspaceRotationAdjust: set factor to 0.0243
ElecMinimize: Iter:  23  F: -1802.356078469484146  |grad|_K:  2.464e-06  alpha:  5.804e-01  linmin: -2.646e-06  t[s]:   8617.24
	FillingsUpdate:  mu: -0.207405356  nElectrons: 330.000000
	SubspaceRotationAdjust: set factor to 0.0266
ElecMinimize: Iter:  24  F: -1802.356205549119522  |grad|_K:  2.643e-06  alpha:  6.875e-01  linmin: -1.578e-06  t[s]:   8867.17
	FillingsUpdate:  mu: -0.206794248  nElectrons: 330.000000
	SubspaceRotationAdjust: set factor to 0.0271
ElecMinimize: Iter:  25  F: -1802.356334926477984  |grad|_K:  2.776e-06  alpha:  6.090e-01  linmin:  5.659e-07  t[s]:   9124.37
	FillingsUpdate:  mu: -0.207237219  nElectrons: 330.000000
	SubspaceRotationAdjust: set factor to 0.024
ElecMinimize: Iter:  26  F: -1802.356457392450920  |grad|_K:  2.673e-06  alpha:  5.234e-01  linmin:  7.505e-07  t[s]:   9374.57
	FillingsUpdate:  mu: -0.207003416  nElectrons: 330.000000
	SubspaceRotationAdjust: set factor to 0.0211
ElecMinimize: Iter:  27  F: -1802.356561732205364  |grad|_K:  2.487e-06  alpha:  4.810e-01  linmin:  1.422e-06  t[s]:   9627.35
	FillingsUpdate:  mu: -0.206439199  nElectrons: 330.000000
	SubspaceRotationAdjust: set factor to 0.0221
ElecMinimize: Iter:  28  F: -1802.356660481765857  |grad|_K:  2.035e-06  alpha:  5.262e-01  linmin:  7.620e-07  t[s]:   9877.82
	FillingsUpdate:  mu: -0.206472677  nElectrons: 330.000000
	SubspaceRotationAdjust: set factor to 0.0231
ElecMinimize: Iter:  29  F: -1802.356723901672694  |grad|_K:  1.644e-06  alpha:  5.044e-01  linmin:  1.761e-07  t[s]:  10127.86
	FillingsUpdate:  mu: -0.206502431  nElectrons: 330.000000
	SubspaceRotationAdjust: set factor to 0.0213
ElecMinimize: Iter:  30  F: -1802.356761520097052  |grad|_K:  1.277e-06  alpha:  4.582e-01  linmin:  4.065e-07  t[s]:  10380.57
	FillingsUpdate:  mu: -0.206429934  nElectrons: 330.000000
	SubspaceRotationAdjust: set factor to 0.02
ElecMinimize: Iter:  31  F: -1802.356783333074191  |grad|_K:  1.039e-06  alpha:  4.405e-01  linmin: -1.323e-07  t[s]:  10630.98
	FillingsUpdate:  mu: -0.206206538  nElectrons: 330.000000
	SubspaceRotationAdjust: set factor to 0.0231
ElecMinimize: Iter:  32  F: -1802.356799747667765  |grad|_K:  8.301e-07  alpha:  5.007e-01  linmin:  4.059e-08  t[s]:  10881.24
	FillingsUpdate:  mu: -0.206089834  nElectrons: 330.000000
	SubspaceRotationAdjust: set factor to 0.0252
ElecMinimize: Iter:  33  F: -1802.356811783677585  |grad|_K:  7.718e-07  alpha:  5.750e-01  linmin:  3.454e-07  t[s]:  11133.64
	FillingsUpdate:  mu: -0.206134860  nElectrons: 330.000000
	SubspaceRotationAdjust: set factor to 0.0237
ElecMinimize: Iter:  34  F: -1802.356820903640482  |grad|_K:  7.829e-07  alpha:  5.041e-01  linmin: -6.445e-08  t[s]:  11384.54
	FillingsUpdate:  mu: -0.206105684  nElectrons: 330.000000
	SubspaceRotationAdjust: set factor to 0.0231
ElecMinimize: Iter:  35  F: -1802.356830850942060  |grad|_K:  7.375e-07  alpha:  5.342e-01  linmin:  4.743e-07  t[s]:  11634.45
	FillingsUpdate:  mu: -0.206046220  nElectrons: 330.000000
	SubspaceRotationAdjust: set factor to 0.0255
ElecMinimize: Iter:  36  F: -1802.356841426223809  |grad|_K:  7.109e-07  alpha:  6.403e-01  linmin:  1.973e-07  t[s]:  11888.83
	FillingsUpdate:  mu: -0.206035806  nElectrons: 330.000000
	SubspaceRotationAdjust: set factor to 0.0261
ElecMinimize: Iter:  37  F: -1802.356850230159125  |grad|_K:  6.834e-07  alpha:  5.736e-01  linmin:  1.120e-07  t[s]:  12139.43
	FillingsUpdate:  mu: -0.206036863  nElectrons: 330.000000
	SubspaceRotationAdjust: set factor to 0.0229
ElecMinimize: Iter:  38  F: -1802.356856925345028  |grad|_K:  6.149e-07  alpha:  4.719e-01  linmin:  3.336e-07  t[s]:  12391.87
	FillingsUpdate:  mu: -0.206050709  nElectrons: 330.000000
	SubspaceRotationAdjust: set factor to 0.0205
ElecMinimize: Iter:  39  F: -1802.356861985803334  |grad|_K:  4.887e-07  alpha:  4.407e-01  linmin: -1.570e-08  t[s]:  12642.98
	FillingsUpdate:  mu: -0.205965160  nElectrons: 330.000000
	SubspaceRotationAdjust: set factor to 0.0231
ElecMinimize: Iter:  40  F: -1802.356865486087599  |grad|_K:  3.810e-07  alpha:  4.826e-01  linmin:  9.087e-08  t[s]:  12891.30
	FillingsUpdate:  mu: -0.205967355  nElectrons: 330.000000
	SubspaceRotationAdjust: set factor to 0.0248
ElecMinimize: Iter:  41  F: -1802.356867747649403  |grad|_K:  3.280e-07  alpha:  5.128e-01  linmin:  3.934e-07  t[s]:  13139.99
	FillingsUpdate:  mu: -0.206006244  nElectrons: 330.000000
	SubspaceRotationAdjust: set factor to 0.0241
ElecMinimize: Iter:  42  F: -1802.356869301458346  |grad|_K:  2.950e-07  alpha:  4.754e-01  linmin: -5.515e-07  t[s]:  13392.16
	FillingsUpdate:  mu: -0.205942152  nElectrons: 330.000000
	SubspaceRotationAdjust: set factor to 0.0241
ElecMinimize: Iter:  43  F: -1802.356870634077723  |grad|_K:  2.685e-07  alpha:  5.033e-01  linmin: -2.859e-07  t[s]:  13640.84
	FillingsUpdate:  mu: -0.205871682  nElectrons: 330.000000
	SubspaceRotationAdjust: set factor to 0.0267
ElecMinimize: Iter:  44  F: -1802.356871905320531  |grad|_K:  2.638e-07  alpha:  5.804e-01  linmin:  1.987e-07  t[s]:  13892.50
	FillingsUpdate:  mu: -0.205841161  nElectrons: 330.000000
	SubspaceRotationAdjust: set factor to 0.0289
ElecMinimize: Iter:  45  F: -1802.356873194622267  |grad|_K:  2.595e-07  alpha:  6.096e-01  linmin:  3.224e-07  t[s]:  14144.43
	FillingsUpdate:  mu: -0.205763022  nElectrons: 330.000000
	SubspaceRotationAdjust: set factor to 0.0268
ElecMinimize: Iter:  46  F: -1802.356874313548587  |grad|_K:  2.633e-07  alpha:  5.470e-01  linmin: -6.808e-08  t[s]:  14395.58
	FillingsUpdate:  mu: -0.205718420  nElectrons: 330.000000
	SubspaceRotationAdjust: set factor to 0.0221
ElecMinimize: Iter:  47  F: -1802.356875127586591  |grad|_K:  2.205e-07  alpha:  3.863e-01  linmin: -1.927e-07  t[s]:  14645.73
	FillingsUpdate:  mu: -0.205681360  nElectrons: 330.000000
	SubspaceRotationAdjust: set factor to 0.0236
ElecMinimize: Iter:  48  F: -1802.356875859741876  |grad|_K:  1.728e-07  alpha:  4.948e-01  linmin: -7.602e-07  t[s]:  14899.80
	FillingsUpdate:  mu: -0.205669326  nElectrons: 330.000000
	SubspaceRotationAdjust: set factor to 0.026
ElecMinimize: Iter:  49  F: -1802.356876340366398  |grad|_K:  1.416e-07  alpha:  5.287e-01  linmin: -2.921e-07  t[s]:  15149.06
	FillingsUpdate:  mu: -0.205667860  nElectrons: 330.000000
	SubspaceRotationAdjust: set factor to 0.0245
ElecMinimize: Iter:  50  F: -1802.356876621578067  |grad|_K:  1.251e-07  alpha:  4.608e-01  linmin: -3.118e-08  t[s]:  15401.45
	FillingsUpdate:  mu: -0.205669760  nElectrons: 330.000000
	SubspaceRotationAdjust: set factor to 0.0231
ElecMinimize: Iter:  51  F: -1802.356876821568449  |grad|_K:  1.043e-07  alpha:  4.198e-01  linmin: -2.427e-06  t[s]:  15660.50
	FillingsUpdate:  mu: -0.205695901  nElectrons: 330.000000
	SubspaceRotationAdjust: set factor to 0.0263
ElecMinimize: Iter:  52  F: -1802.356877009455957  |grad|_K:  9.158e-08  alpha:  5.626e-01  linmin:  8.276e-07  t[s]:  15916.69
	FillingsUpdate:  mu: -0.205706902  nElectrons: 330.000000
	SubspaceRotationAdjust: set factor to 0.0286
ElecMinimize: Iter:  53  F: -1802.356877167715083  |grad|_K:  8.853e-08  alpha:  6.213e-01  linmin: -2.050e-06  t[s]:  16163.61
	FillingsUpdate:  mu: -0.205715621  nElectrons: 330.000000
	SubspaceRotationAdjust: set factor to 0.0254
ElecMinimize: Iter:  54  F: -1802.356877280048138  |grad|_K:  8.766e-08  alpha:  4.662e-01  linmin: -3.503e-07  t[s]:  16416.79
	FillingsUpdate:  mu: -0.205742783  nElectrons: 330.000000
	SubspaceRotationAdjust: set factor to 0.0223
ElecMinimize: Iter:  55  F: -1802.356877378196259  |grad|_K:  7.171e-08  alpha:  4.231e-01  linmin:  8.007e-07  t[s]:  16666.68
	FillingsUpdate:  mu: -0.205760704  nElectrons: 330.000000
	SubspaceRotationAdjust: set factor to 0.0246
ElecMinimize: Iter:  56  F: -1802.356877463142155  |grad|_K:  5.861e-08  alpha:  5.390e-01  linmin:  8.388e-07  t[s]:  16921.53
	FillingsUpdate:  mu: -0.205768332  nElectrons: 330.000000
	SubspaceRotationAdjust: set factor to 0.0266
ElecMinimize: Iter:  57  F: -1802.356877515775068  |grad|_K:  4.913e-08  alpha:  5.051e-01  linmin: -3.409e-06  t[s]:  17177.60
	FillingsUpdate:  mu: -0.205777053  nElectrons: 330.000000
	SubspaceRotationAdjust: set factor to 0.0254
ElecMinimize: Iter:  58  F: -1802.356877550198760  |grad|_K:  4.428e-08  alpha:  4.614e-01  linmin: -2.808e-07  t[s]:  17432.58
	FillingsUpdate:  mu: -0.205780122  nElectrons: 330.000000
	SubspaceRotationAdjust: set factor to 0.0247
ElecMinimize: Iter:  59  F: -1802.356877577616160  |grad|_K:  3.980e-08  alpha:  4.658e-01  linmin:  1.718e-07  t[s]:  17683.53
	FillingsUpdate:  mu: -0.205785502  nElectrons: 330.000000
	SubspaceRotationAdjust: set factor to 0.0283
ElecMinimize: Iter:  60  F: -1802.356877604495367  |grad|_K:  3.629e-08  alpha:  5.329e-01  linmin: -7.912e-06  t[s]:  17938.08
	FillingsUpdate:  mu: -0.205790296  nElectrons: 330.000000
	SubspaceRotationAdjust: set factor to 0.0311
ElecMinimize: Iter:  61  F: -1802.356877634036891  |grad|_K:  4.374e-08  alpha:  7.272e-01  linmin:  6.891e-06  t[s]:  18190.69
	FillingsUpdate:  mu: -0.205792530  nElectrons: 330.000000
	SubspaceRotationAdjust: set factor to 0.0299
ElecMinimize: Iter:  62  F: -1802.356877663126170  |grad|_K:  4.687e-08  alpha:  5.406e-01  linmin: -1.864e-06  t[s]:  18443.43
	FillingsUpdate:  mu: -0.205801636  nElectrons: 330.000000
	SubspaceRotationAdjust: set factor to 0.0257
ElecMinimize: Iter:  63  F: -1802.356877691571981  |grad|_K:  4.395e-08  alpha:  4.158e-01  linmin: -1.393e-06  t[s]:  18691.20
	FillingsUpdate:  mu: -0.205809411  nElectrons: 330.000000
	SubspaceRotationAdjust: set factor to 0.0252
ElecMinimize: Iter:  64  F: -1802.356877720956845  |grad|_K:  3.729e-08  alpha:  4.919e-01  linmin:  2.321e-06  t[s]:  18941.62
	FillingsUpdate:  mu: -0.205812201  nElectrons: 330.000000
	SubspaceRotationAdjust: set factor to 0.0271
ElecMinimize: Iter:  65  F: -1802.356877742068946  |grad|_K:  2.897e-08  alpha:  5.331e-01  linmin:  4.505e-08  t[s]:  19192.86
	FillingsUpdate:  mu: -0.205812011  nElectrons: 330.000000
	SubspaceRotationAdjust: set factor to 0.0272
ElecMinimize: Iter:  66  F: -1802.356877753293702  |grad|_K:  2.151e-08  alpha:  4.323e-01  linmin: -4.116e-06  t[s]:  19447.28
	FillingsUpdate:  mu: -0.205812458  nElectrons: 330.000000
	SubspaceRotationAdjust: set factor to 0.0245
ElecMinimize: Iter:  67  F: -1802.356877759049212  |grad|_K:  1.938e-08  alpha:  4.427e-01  linmin:  1.417e-05  t[s]:  19698.04
	FillingsUpdate:  mu: -0.205814697  nElectrons: 330.000000
	SubspaceRotationAdjust: set factor to 0.0237
ElecMinimize: Iter:  68  F: -1802.356877763562579  |grad|_K:  1.531e-08  alpha:  4.105e-01  linmin:  1.015e-05  t[s]:  19946.15
ElecMinimize: Converged (|Delta F|<1.000000e-08 for 2 iters).
Setting wave functions to eigenvectors of Hamiltonian

# Ionic positions in lattice coordinates:
ion O   0.500000000000000   0.500000000000000   0.331487165900000 1
ion C   0.500000000000000   0.500000000000000   0.281000000000000 1
ion Pt   0.333300000000000   0.166700000000000  -0.200100000000000 0
ion Pt   0.333300000000000   0.666700000000000  -0.200100000000000 0
ion Pt   0.833300000000000   0.166700000000000  -0.200100000000000 0
ion Pt   0.833300000000000   0.666700000000000  -0.200100000000000 0
ion Pt   0.000000000000000   0.000000000000000  -0.100000000000000 0
ion Pt   0.000000000000000   0.500000000000000  -0.100000000000000 0
ion Pt   0.500000000000000   0.000000000000000  -0.100000000000000 0
ion Pt   0.500000000000000   0.500000000000000  -0.100000000000000 0
ion Pt   0.166700000000000   0.333300000000000   0.000000000000000 1
ion Pt   0.166700000000000   0.833300000000000   0.000000000000000 1
ion Pt   0.666700000000000   0.333300000000000   0.000000000000000 1
ion Pt   0.666700000000000   0.833300000000000   0.000000000000000 1
ion Pt   0.333300000000000   0.166700000000000   0.100000000000000 1
ion Pt   0.333300000000000   0.666700000000000   0.100000000000000 1
ion Pt   0.833300000000000   0.166700000000000   0.100000000000000 1
ion Pt   0.833300000000000   0.666700000000000   0.100000000000000 1
ion Pt   0.000000000000000   0.000000000000000   0.200100000000000 1
ion Pt   0.000000000000000   0.500000000000000   0.200100000000000 1
ion Pt   0.500000000000000   0.000000000000000   0.200100000000000 1
ion Pt   0.500000000000000   0.500000000000000   0.200100000000000 1


# Forces in Lattice coordinates:
force O  -0.000000412175130   0.000000412175130   1.061447728037265 1
force C  -0.000025000367263   0.000025000367263  -0.712548969276952 1
force Pt   0.000039328554286  -0.000168953489219  -0.018350884014204 0
force Pt  -0.000097996623130   0.000097996623130  -0.018342310611542 0
force Pt   0.000035279652753  -0.000035279652753  -0.005105090905001 0
force Pt   0.000168953489219  -0.000039328554286  -0.018350884014204 0
force Pt  -0.000760591490523   0.000760591490523   0.077761463758787 0
force Pt   0.000020472363647  -0.000805819059891   0.077664075173284 0
force Pt   0.000805819059891  -0.000020472363647   0.077664075173284 0
force Pt   0.000023043141188  -0.000023043141188   0.078289228196035 0
force Pt   0.002127566711152   0.000234762480247   0.030422240631993 1
force Pt  -0.000210896157057   0.000210896157057  -0.230462210036061 1
force Pt  -0.002595309847280   0.002595309847280   0.030397825508349 1
force Pt  -0.000234762480247  -0.002127566711152   0.030422240631993 1
force Pt   0.000217773276210  -0.002663207023411  -0.150078136837822 1
force Pt  -0.002194919458949   0.002194919458949  -0.150151914686236 1
force Pt   0.000256010973399  -0.000256010973399  -0.068903290949381 1
force Pt   0.002663207023411  -0.000217773276210  -0.150078136837822 1
force Pt  -0.001279052050129   0.001279052050129  -0.141821232076431 1
force Pt  -0.000078420360070  -0.001119659207863  -0.141869122444209 1
force Pt   0.001119659207863   0.000078420360070  -0.141869122444209 1
force Pt  -0.000026789981174   0.000026789981174   0.483955487926307 1

# Energy components:
   Eewald =   -28044.7475397310990957
       EH =   -26527.2265833106430364
     Eloc =    52454.2547110312953009
      Enl =      -17.9876583006807884
      Exc =     -571.5959281592322441
 Exc_core =      324.9288363423366945
       KE =      580.2473211533991844
-------------------------------------
     Etot =    -1802.1268409746239740
       TS =        0.2300367889385430
-------------------------------------
        F =    -1802.3568777635625793

IonicMinimize: Iter:   0  F: -1802.356877763562579  |grad|_K:  5.176e-03  t[s]:  19988.78

#--- Lowdin population analysis ---
# oxidation-state O -0.087
# oxidation-state C +0.534
# oxidation-state Pt +0.008 +0.008 +0.009 +0.008 +0.012 +0.012 +0.012 +0.012 +0.015 +0.003 +0.015 +0.015 -0.007 -0.007 +0.009 -0.007 -0.027 -0.027 -0.027 -0.158


-------- Electronic minimization -----------
	FillingsUpdate:  mu: -0.204715368  nElectrons: 330.000000
ElecMinimize: Iter:   0  F: -1802.341020316221829  |grad|_K:  3.614e-05  alpha:  1.000e+00
	FillingsUpdate:  mu: -0.200072960  nElectrons: 330.000000
	SubspaceRotationAdjust: set factor to 0.019
ElecMinimize: Iter:   1  F: -1802.354280465517377  |grad|_K:  1.242e-05  alpha:  3.344e-01  linmin:  6.536e-04  t[s]:  20441.46
	FillingsUpdate:  mu: -0.203682894  nElectrons: 330.000000
	SubspaceRotationAdjust: set factor to 0.0109
ElecMinimize: Iter:   2  F: -1802.355461323163581  |grad|_K:  5.012e-06  alpha:  2.520e-01  linmin: -1.405e-05  t[s]:  20698.45
	FillingsUpdate:  mu: -0.204818625  nElectrons: 330.000000
	SubspaceRotationAdjust: set factor to 0.0121
ElecMinimize: Iter:   3  F: -1802.355718170056662  |grad|_K:  2.182e-06  alpha:  3.366e-01  linmin:  1.348e-05  t[s]:  20954.56
	FillingsUpdate:  mu: -0.204941091  nElectrons: 330.000000
	SubspaceRotationAdjust: set factor to 0.0155
ElecMinimize: Iter:   4  F: -1802.355780884153091  |grad|_K:  1.440e-06  alpha:  4.334e-01  linmin: -7.566e-07  t[s]:  21208.08
	FillingsUpdate:  mu: -0.205149432  nElectrons: 330.000000
	SubspaceRotationAdjust: set factor to 0.0182
ElecMinimize: Iter:   5  F: -1802.355818759240719  |grad|_K:  1.341e-06  alpha:  6.011e-01  linmin:  3.029e-07  t[s]:  21459.14
	FillingsUpdate:  mu: -0.205606257  nElectrons: 330.000000
	SubspaceRotationAdjust: set factor to 0.0215
ElecMinimize: Iter:   6  F: -1802.355866096836507  |grad|_K:  1.838e-06  alpha:  8.667e-01  linmin:  2.819e-06  t[s]:  21715.80
	FillingsUpdate:  mu: -0.206709187  nElectrons: 330.000000
	SubspaceRotationAdjust: set factor to 0.0232
ElecMinimize: Iter:   7  F: -1802.355978605101882  |grad|_K:  2.848e-06  alpha:  1.096e+00  linmin:  1.369e-06  t[s]:  21973.21
	FillingsUpdate:  mu: -0.208663823  nElectrons: 330.000000
	SubspaceRotationAdjust: set factor to 0.0241
ElecMinimize: Iter:   8  F: -1802.356228333016134  |grad|_K:  3.734e-06  alpha:  1.014e+00  linmin:  4.678e-06  t[s]:  22230.60
	FillingsUpdate:  mu: -0.210494757  nElectrons: 330.000000
	SubspaceRotationAdjust: set factor to 0.0218
ElecMinimize: Iter:   9  F: -1802.356481420177715  |grad|_K:  3.691e-06  alpha:  5.950e-01  linmin: -7.937e-06  t[s]:  22487.01
	FillingsUpdate:  mu: -0.212088491  nElectrons: 330.000000
	SubspaceRotationAdjust: set factor to 0.0187
ElecMinimize: Iter:  10  F: -1802.356660639724851  |grad|_K:  2.708e-06  alpha:  4.328e-01  linmin: -3.483e-06  t[s]:  22742.26
	FillingsUpdate:  mu: -0.212530327  nElectrons: 330.000000
	SubspaceRotationAdjust: set factor to 0.0221
ElecMinimize: Iter:  11  F: -1802.356754011855401  |grad|_K:  1.603e-06  alpha:  4.190e-01  linmin:  7.760e-06  t[s]:  22994.12
	FillingsUpdate:  mu: -0.212493756  nElectrons: 330.000000
	SubspaceRotationAdjust: set factor to 0.028
ElecMinimize: Iter:  12  F: -1802.356790773101920  |grad|_K:  1.145e-06  alpha:  4.710e-01  linmin:  2.060e-06  t[s]:  23250.46
	FillingsUpdate:  mu: -0.212265873  nElectrons: 330.000000
	SubspaceRotationAdjust: set factor to 0.0284
ElecMinimize: Iter:  13  F: -1802.356811146210930  |grad|_K:  1.133e-06  alpha:  5.119e-01  linmin: -3.238e-06  t[s]:  23504.53
	FillingsUpdate:  mu: -0.211671224  nElectrons: 330.000000
	SubspaceRotationAdjust: set factor to 0.0319
ElecMinimize: Iter:  14  F: -1802.356829813486456  |grad|_K:  1.140e-06  alpha:  4.788e-01  linmin:  1.954e-06  t[s]:  23759.44
	FillingsUpdate:  mu: -0.210825521  nElectrons: 330.000000
	SubspaceRotationAdjust: set factor to 0.0346
ElecMinimize: Iter:  15  F: -1802.356853950693903  |grad|_K:  1.233e-06  alpha:  6.112e-01  linmin: -1.813e-06  t[s]:  24013.83
	FillingsUpdate:  mu: -0.209687908  nElectrons: 330.000000
	SubspaceRotationAdjust: set factor to 0.037
ElecMinimize: Iter:  16  F: -1802.356881472950136  |grad|_K:  1.143e-06  alpha:  5.960e-01  linmin:  8.486e-07  t[s]:  24270.55
	FillingsUpdate:  mu: -0.208818144  nElectrons: 330.000000
	SubspaceRotationAdjust: set factor to 0.0392
ElecMinimize: Iter:  17  F: -1802.356903598458530  |grad|_K:  9.187e-07  alpha:  5.574e-01  linmin: -8.824e-07  t[s]:  24522.61
	FillingsUpdate:  mu: -0.208368656  nElectrons: 330.000000
	SubspaceRotationAdjust: set factor to 0.0411
ElecMinimize: Iter:  18  F: -1802.356914870528044  |grad|_K:  7.122e-07  alpha:  4.395e-01  linmin: -5.984e-08  t[s]:  24777.89
	FillingsUpdate:  mu: -0.208259735  nElectrons: 330.000000
	SubspaceRotationAdjust: set factor to 0.0349
ElecMinimize: Iter:  19  F: -1802.356919632876725  |grad|_K:  6.188e-07  alpha:  3.091e-01  linmin: -6.209e-07  t[s]:  25033.41
	FillingsUpdate:  mu: -0.208168188  nElectrons: 330.000000
	SubspaceRotationAdjust: set factor to 0.0342
ElecMinimize: Iter:  20  F: -1802.356922818059502  |grad|_K:  4.019e-07  alpha:  2.737e-01  linmin:  1.089e-06  t[s]:  25287.53
	FillingsUpdate:  mu: -0.208167550  nElectrons: 330.000000
	SubspaceRotationAdjust: set factor to 0.0462
ElecMinimize: Iter:  21  F: -1802.356925051181179  |grad|_K:  3.052e-07  alpha:  4.553e-01  linmin: -3.119e-06  t[s]:  25542.41
	FillingsUpdate:  mu: -0.208218144  nElectrons: 330.000000
	SubspaceRotationAdjust: set factor to 0.0603
ElecMinimize: Iter:  22  F: -1802.356926737086269  |grad|_K:  2.970e-07  alpha:  5.952e-01  linmin:  6.138e-07  t[s]:  25797.30
	FillingsUpdate:  mu: -0.208290292  nElectrons: 330.000000
	SubspaceRotationAdjust: set factor to 0.0651
ElecMinimize: Iter:  23  F: -1802.356928265057832  |grad|_K:  3.410e-07  alpha:  5.703e-01  linmin:  1.032e-06  t[s]:  26050.46
	FillingsUpdate:  mu: -0.208346152  nElectrons: 330.000000
	SubspaceRotationAdjust: set factor to 0.0535
ElecMinimize: Iter:  24  F: -1802.356929096298927  |grad|_K:  3.894e-07  alpha:  2.354e-01  linmin:  4.086e-07  t[s]:  26307.62
	FillingsUpdate:  mu: -0.208375092  nElectrons: 330.000000
	SubspaceRotationAdjust: set factor to 0.0527
ElecMinimize: Iter:  25  F: -1802.356930304900061  |grad|_K:  2.821e-07  alpha:  2.626e-01  linmin:  8.177e-07  t[s]:  26561.59
	FillingsUpdate:  mu: -0.208452818  nElectrons: 330.000000
	SubspaceRotationAdjust: set factor to 0.0637
ElecMinimize: Iter:  26  F: -1802.356931611023128  |grad|_K:  2.576e-07  alpha:  5.401e-01  linmin:  2.580e-08  t[s]:  26819.39
	FillingsUpdate:  mu: -0.208495925  nElectrons: 330.000000
	SubspaceRotationAdjust: set factor to 0.0594
ElecMinimize: Iter:  27  F: -1802.356932582540367  |grad|_K:  2.702e-07  alpha:  4.821e-01  linmin: -9.304e-07  t[s]:  27074.27
	FillingsUpdate:  mu: -0.208520209  nElectrons: 330.000000
	SubspaceRotationAdjust: set factor to 0.0508
ElecMinimize: Iter:  28  F: -1802.356933099858907  |grad|_K:  3.018e-07  alpha:  2.330e-01  linmin: -7.053e-07  t[s]:  27328.62
	FillingsUpdate:  mu: -0.208510224  nElectrons: 330.000000
	SubspaceRotationAdjust: set factor to 0.0547
ElecMinimize: Iter:  29  F: -1802.356933868981059  |grad|_K:  2.117e-07  alpha:  2.773e-01  linmin: -3.691e-06  t[s]:  27583.04
	FillingsUpdate:  mu: -0.208523689  nElectrons: 330.000000
	SubspaceRotationAdjust: set factor to 0.0679
ElecMinimize: Iter:  30  F: -1802.356934555723683  |grad|_K:  1.877e-07  alpha:  5.028e-01  linmin: -3.837e-07  t[s]:  27834.06
	FillingsUpdate:  mu: -0.208543015  nElectrons: 330.000000
	SubspaceRotationAdjust: set factor to 0.0557
ElecMinimize: Iter:  31  F: -1802.356935011781843  |grad|_K:  2.236e-07  alpha:  4.268e-01  linmin:  1.648e-06  t[s]:  28085.85
	FillingsUpdate:  mu: -0.208534318  nElectrons: 330.000000
	SubspaceRotationAdjust: set factor to 0.0422
ElecMinimize: Iter:  32  F: -1802.356935229422334  |grad|_K:  1.656e-07  alpha:  1.434e-01  linmin: -2.006e-07  t[s]:  28337.12
	FillingsUpdate:  mu: -0.208522855  nElectrons: 330.000000
	SubspaceRotationAdjust: set factor to 0.0604
ElecMinimize: Iter:  33  F: -1802.356935568432618  |grad|_K:  1.245e-07  alpha:  4.131e-01  linmin:  2.949e-05  t[s]:  28589.42
	FillingsUpdate:  mu: -0.208520083  nElectrons: 330.000000
	SubspaceRotationAdjust: set factor to 0.0449
ElecMinimize: Iter:  34  F: -1802.356935722730213  |grad|_K:  1.381e-07  alpha:  3.318e-01  linmin:  2.132e-06  t[s]:  28837.91
	FillingsUpdate:  mu: -0.208508750  nElectrons: 330.000000
	SubspaceRotationAdjust: set factor to 0.0416
ElecMinimize: Iter:  35  F: -1802.356935819693263  |grad|_K:  9.414e-08  alpha:  1.684e-01  linmin: -2.791e-06  t[s]:  29091.87
	FillingsUpdate:  mu: -0.208501434  nElectrons: 330.000000
	SubspaceRotationAdjust: set factor to 0.0604
ElecMinimize: Iter:  36  F: -1802.356935945831310  |grad|_K:  8.005e-08  alpha:  4.416e-01  linmin: -1.222e-04  t[s]:  29348.72
	FillingsUpdate:  mu: -0.208496312  nElectrons: 330.000000
	SubspaceRotationAdjust: set factor to 0.0451
ElecMinimize: Iter:  37  F: -1802.356936017660473  |grad|_K:  9.899e-08  alpha:  3.473e-01  linmin:  7.530e-06  t[s]:  29600.19
	FillingsUpdate:  mu: -0.208481238  nElectrons: 330.000000
	SubspaceRotationAdjust: set factor to 0.0438
ElecMinimize: Iter:  38  F: -1802.356936071041218  |grad|_K:  6.630e-08  alpha:  1.784e-01  linmin: -1.353e-05  t[s]:  29855.38
	FillingsUpdate:  mu: -0.208468773  nElectrons: 330.000000
	SubspaceRotationAdjust: set factor to 0.0546
ElecMinimize: Iter:  39  F: -1802.356936133583758  |grad|_K:  5.958e-08  alpha:  4.282e-01  linmin: -2.488e-04  t[s]:  30113.95
	FillingsUpdate:  mu: -0.208465604  nElectrons: 330.000000
	SubspaceRotationAdjust: set factor to 0.0451
ElecMinimize: Iter:  40  F: -1802.356936166462447  |grad|_K:  6.874e-08  alpha:  2.741e-01  linmin:  4.914e-05  t[s]:  30369.97
	FillingsUpdate:  mu: -0.208450992  nElectrons: 330.000000
	SubspaceRotationAdjust: set factor to 0.053
ElecMinimize: Iter:  41  F: -1802.356936202744919  |grad|_K:  4.668e-08  alpha:  2.593e-01  linmin:  3.940e-05  t[s]:  30627.77
	FillingsUpdate:  mu: -0.208438289  nElectrons: 330.000000
	SubspaceRotationAdjust: set factor to 0.0491
ElecMinimize: Iter:  42  F: -1802.356936228511813  |grad|_K:  4.735e-08  alpha:  4.137e-01  linmin:  6.727e-06  t[s]:  30882.53
	FillingsUpdate:  mu: -0.208436321  nElectrons: 330.000000
	SubspaceRotationAdjust: set factor to 0.0437
ElecMinimize: Iter:  43  F: -1802.356936241589665  |grad|_K:  4.369e-08  alpha:  1.967e-01  linmin:  1.186e-05  t[s]:  31136.34
	FillingsUpdate:  mu: -0.208431062  nElectrons: 330.000000
	SubspaceRotationAdjust: set factor to 0.0631
ElecMinimize: Iter:  44  F: -1802.356936262703584  |grad|_K:  3.502e-08  alpha:  3.727e-01  linmin:  3.721e-05  t[s]:  31393.03
	FillingsUpdate:  mu: -0.208426865  nElectrons: 330.000000
	SubspaceRotationAdjust: set factor to 0.0479
ElecMinimize: Iter:  45  F: -1802.356936278176818  |grad|_K:  4.760e-08  alpha:  3.965e-01  linmin:  8.762e-05  t[s]:  31649.66
	FillingsUpdate:  mu: -0.208427969  nElectrons: 330.000000
	SubspaceRotationAdjust: set factor to 0.0474
ElecMinimize: Iter:  46  F: -1802.356936286505061  |grad|_K:  3.165e-08  alpha:  1.464e-01  linmin: -2.203e-05  t[s]:  31904.38
ElecMinimize: 	Predicted alpha/alphaT>3.000000, increasing alphaT to 4.392875e-01.
	FillingsUpdate:  mu: -0.208428123  nElectrons: 330.000000
	SubspaceRotationAdjust: set factor to 0.0389
ElecMinimize: Iter:  47  F: -1802.356936299204790  |grad|_K:  3.666e-08  alpha:  4.123e-01  linmin: -9.348e-06  t[s]:  32218.08
	FillingsUpdate:  mu: -0.208426722  nElectrons: 330.000000
	SubspaceRotationAdjust: set factor to 0.0356
ElecMinimize: Iter:  48  F: -1802.356936305467570  |grad|_K:  2.730e-08  alpha:  1.655e-01  linmin: -2.248e-05  t[s]:  32473.80
	FillingsUpdate:  mu: -0.208428232  nElectrons: 330.000000
	SubspaceRotationAdjust: set factor to 0.0327
ElecMinimize: Iter:  49  F: -1802.356936314156201  |grad|_K:  2.660e-08  alpha:  3.530e-01  linmin: -9.281e-05  t[s]:  32728.18
ElecMinimize: Converged (|Delta F|<1.000000e-08 for 2 iters).
Setting wave functions to eigenvectors of Hamiltonian

# Ionic positions in lattice coordinates:
ion O   0.499999997497787   0.500000002502213   0.332067460083031 1
ion C   0.499999848228955   0.500000151771045   0.280610449001798 1
ion Pt   0.333300000000000   0.166700000000000  -0.200100000000000 0
ion Pt   0.333300000000000   0.666700000000000  -0.200100000000000 0
ion Pt   0.833300000000000   0.166700000000000  -0.200100000000000 0
ion Pt   0.833300000000000   0.666700000000000  -0.200100000000000 0
ion Pt   0.000000000000000   0.000000000000000  -0.100000000000000 0
ion Pt   0.000000000000000   0.500000000000000  -0.100000000000000 0
ion Pt   0.500000000000000   0.000000000000000  -0.100000000000000 0
ion Pt   0.500000000000000   0.500000000000000  -0.100000000000000 0
ion Pt   0.166727257047335   0.333315766301082   0.000016631859306 1
ion Pt   0.166698719701601   0.833301280298399  -0.000125993844407 1
ion Pt   0.666684244515932   0.333315755484067   0.000016618511542 1
ion Pt   0.666684233698917   0.833272742952665   0.000016631859306 1
ion Pt   0.333286476424349   0.166668986705633   0.099917952182188 1
ion Pt   0.333286675186933   0.666713324813067   0.099917911847789 1
ion Pt   0.833301554179289   0.166698445820711   0.099962330524741 1
ion Pt   0.833331013294367   0.666713523575651   0.099917952182188 1
ion Pt  -0.000007764808591   0.000007764808591   0.200022466237545 1
ion Pt  -0.000007749315288   0.499985929581243   0.200022440055849 1
ion Pt   0.500014070418757   0.000007749315288   0.200022440055849 1
ion Pt   0.499999837364651   0.500000162635349   0.200364578789018 1


# Forces in Lattice coordinates:
force O  -0.000001295621795   0.000001295621795  -0.896043058585576 1
force C  -0.000025299463205   0.000025299463205   1.512047159241904 1
force Pt   0.000037738811931  -0.000125101966519  -0.020280861923565 0
force Pt  -0.000053536380042   0.000053536380042  -0.020270551261935 0
force Pt   0.000037770820108  -0.000037770820108  -0.005333782739879 0
force Pt   0.000125101966519  -0.000037738811931  -0.020280861923565 0
force Pt  -0.001726748942734   0.001726748942734   0.070103537639982 0
force Pt   0.000018109735347  -0.001765191172795   0.070031571688207 0
force Pt   0.001765191172795  -0.000018109735347   0.070031571688207 0
force Pt   0.000018778426411  -0.000018778426411   0.075487155997099 0
force Pt   0.001348932795600   0.000220941865044   0.014688940900098 1
force Pt  -0.000203387944176   0.000203387944176  -0.223013492173383 1
force Pt  -0.001797520892557   0.001797520892557   0.014702543358656 1
force Pt  -0.000220941865044  -0.001348932795600   0.014688940900098 1
force Pt   0.000214260125610  -0.000539172347137  -0.130622571336741 1
force Pt  -0.000096017452339   0.000096017452339  -0.130737396969077 1
force Pt   0.000237608528667  -0.000237608528667  -0.071098576799306 1
force Pt   0.000539172347137  -0.000214260125610  -0.130622571336741 1
force Pt  -0.000343935268594   0.000343935268594  -0.147177780299793 1
force Pt  -0.000065831288970  -0.000199279852957  -0.147334614622715 1
force Pt   0.000199279852957   0.000065831288970  -0.147334614622715 1
force Pt  -0.000016800649674   0.000016800649674   0.187527288176384 1

# Energy components:
   Eewald =   -28045.5256749809668690
       EH =   -26528.8075760665742564
     Eloc =    52456.6549436590066762
      Enl =      -18.0006113696412982
      Exc =     -571.5821622324896225
 Exc_core =      324.9288370841423443
       KE =      580.2051697598571991
-------------------------------------
     Etot =    -1802.1270741466696563
       TS =        0.2298621674864782
-------------------------------------
        F =    -1802.3569363141562008

IonicMinimize: Iter:   1  F: -1802.356936314156201  |grad|_K:  6.550e-03  alpha:  1.000e+00  linmin:  6.728e-01  t[s]:  32770.81

#--- Lowdin population analysis ---
# oxidation-state O -0.100
# oxidation-state C +0.527
# oxidation-state Pt +0.010 +0.010 +0.010 +0.010 +0.012 +0.012 +0.012 +0.012 +0.015 +0.003 +0.015 +0.015 -0.009 -0.009 +0.008 -0.009 -0.026 -0.026 -0.026 -0.150


-------- Electronic minimization -----------
	FillingsUpdate:  mu: -0.208366718  nElectrons: 330.000000
ElecMinimize: Iter:   0  F: -1802.357047703350872  |grad|_K:  4.210e-06  alpha:  1.000e+00
	FillingsUpdate:  mu: -0.208276921  nElectrons: 330.000000
	SubspaceRotationAdjust: set factor to 0.018
ElecMinimize: Iter:   1  F: -1802.357134520201043  |grad|_K:  1.724e-06  alpha:  1.612e-01  linmin: -9.484e-05  t[s]:  33243.69
	FillingsUpdate:  mu: -0.208108689  nElectrons: 330.000000
	SubspaceRotationAdjust: set factor to 0.0218
ElecMinimize: Iter:   2  F: -1802.357166724933677  |grad|_K:  6.913e-07  alpha:  3.568e-01  linmin:  3.299e-05  t[s]:  33498.30
	FillingsUpdate:  mu: -0.208152169  nElectrons: 330.000000
	SubspaceRotationAdjust: set factor to 0.0288
ElecMinimize: Iter:   3  F: -1802.357175478028466  |grad|_K:  5.488e-07  alpha:  6.032e-01  linmin:  4.233e-05  t[s]:  33750.89
	FillingsUpdate:  mu: -0.208052270  nElectrons: 330.000000
	SubspaceRotationAdjust: set factor to 0.0295
ElecMinimize: Iter:   4  F: -1802.357181385901640  |grad|_K:  5.865e-07  alpha:  6.458e-01  linmin:  4.002e-06  t[s]:  34001.95
	FillingsUpdate:  mu: -0.207850314  nElectrons: 330.000000
	SubspaceRotationAdjust: set factor to 0.0289
ElecMinimize: Iter:   5  F: -1802.357189822904729  |grad|_K:  9.530e-07  alpha:  8.072e-01  linmin: -3.984e-06  t[s]:  34252.84
	FillingsUpdate:  mu: -0.207334435  nElectrons: 330.000000
	SubspaceRotationAdjust: set factor to 0.0251
ElecMinimize: Iter:   6  F: -1802.357205954852361  |grad|_K:  1.075e-06  alpha:  5.847e-01  linmin: -1.690e-06  t[s]:  34506.36
	FillingsUpdate:  mu: -0.206685052  nElectrons: 330.000000
	SubspaceRotationAdjust: set factor to 0.0254
ElecMinimize: Iter:   7  F: -1802.357233361239196  |grad|_K:  1.048e-06  alpha:  7.809e-01  linmin: -9.436e-06  t[s]:  34758.25
	FillingsUpdate:  mu: -0.206095958  nElectrons: 330.000000
	SubspaceRotationAdjust: set factor to 0.0273
ElecMinimize: Iter:   8  F: -1802.357254289144521  |grad|_K:  7.371e-07  alpha:  6.271e-01  linmin: -1.865e-06  t[s]:  35013.48
	FillingsUpdate:  mu: -0.205959310  nElectrons: 330.000000
	SubspaceRotationAdjust: set factor to 0.034
ElecMinimize: Iter:   9  F: -1802.357263192026494  |grad|_K:  5.009e-07  alpha:  5.394e-01  linmin:  8.054e-07  t[s]:  35260.76
	FillingsUpdate:  mu: -0.206040625  nElectrons: 330.000000
	SubspaceRotationAdjust: set factor to 0.0434
ElecMinimize: Iter:  10  F: -1802.357267356579996  |grad|_K:  4.365e-07  alpha:  5.465e-01  linmin:  6.003e-06  t[s]:  35515.96
	FillingsUpdate:  mu: -0.206172070  nElectrons: 330.000000
	SubspaceRotationAdjust: set factor to 0.0521
ElecMinimize: Iter:  11  F: -1802.357270917955475  |grad|_K:  5.177e-07  alpha:  6.155e-01  linmin: -3.374e-06  t[s]:  35763.69
	FillingsUpdate:  mu: -0.206394990  nElectrons: 330.000000
	SubspaceRotationAdjust: set factor to 0.0405
ElecMinimize: Iter:  12  F: -1802.357274489008205  |grad|_K:  6.895e-07  alpha:  4.384e-01  linmin:  6.893e-07  t[s]:  36016.34
	FillingsUpdate:  mu: -0.206600933  nElectrons: 330.000000
	SubspaceRotationAdjust: set factor to 0.0325
ElecMinimize: Iter:  13  F: -1802.357278208549815  |grad|_K:  5.376e-07  alpha:  2.576e-01  linmin: -1.074e-06  t[s]:  36272.46
	FillingsUpdate:  mu: -0.206989514  nElectrons: 330.000000
	SubspaceRotationAdjust: set factor to 0.0332
ElecMinimize: Iter:  14  F: -1802.357283033523117  |grad|_K:  4.149e-07  alpha:  5.499e-01  linmin:  2.344e-06  t[s]:  36523.70
	FillingsUpdate:  mu: -0.207196665  nElectrons: 330.000000
	SubspaceRotationAdjust: set factor to 0.0355
ElecMinimize: Iter:  15  F: -1802.357285597505097  |grad|_K:  3.051e-07  alpha:  4.906e-01  linmin: -1.441e-06  t[s]:  36776.20
	FillingsUpdate:  mu: -0.207253559  nElectrons: 330.000000
	SubspaceRotationAdjust: set factor to 0.0368
ElecMinimize: Iter:  16  F: -1802.357286732980356  |grad|_K:  2.110e-07  alpha:  4.010e-01  linmin:  6.354e-07  t[s]:  37032.06
	FillingsUpdate:  mu: -0.207277400  nElectrons: 330.000000
	SubspaceRotationAdjust: set factor to 0.0346
ElecMinimize: Iter:  17  F: -1802.357287177320586  |grad|_K:  1.644e-07  alpha:  3.286e-01  linmin: -7.175e-07  t[s]:  37285.54
	FillingsUpdate:  mu: -0.207276739  nElectrons: 330.000000
	SubspaceRotationAdjust: set factor to 0.0327
ElecMinimize: Iter:  18  F: -1802.357287413377890  |grad|_K:  1.195e-07  alpha:  2.868e-01  linmin: -1.467e-05  t[s]:  37536.26
	FillingsUpdate:  mu: -0.207287520  nElectrons: 330.000000
	SubspaceRotationAdjust: set factor to 0.0436
ElecMinimize: Iter:  19  F: -1802.357287592686589  |grad|_K:  8.821e-08  alpha:  4.147e-01  linmin: -1.391e-05  t[s]:  37789.34
	FillingsUpdate:  mu: -0.207284286  nElectrons: 330.000000
	SubspaceRotationAdjust: set factor to 0.056
ElecMinimize: Iter:  20  F: -1802.357287733733529  |grad|_K:  8.062e-08  alpha:  5.959e-01  linmin: -4.795e-06  t[s]:  38041.63
	FillingsUpdate:  mu: -0.207267692  nElectrons: 330.000000
	SubspaceRotationAdjust: set factor to 0.0546
ElecMinimize: Iter:  21  F: -1802.357287844649591  |grad|_K:  9.459e-08  alpha:  5.655e-01  linmin: -1.183e-05  t[s]:  38294.28
	FillingsUpdate:  mu: -0.207265681  nElectrons: 330.000000
	SubspaceRotationAdjust: set factor to 0.0435
ElecMinimize: Iter:  22  F: -1802.357287902795406  |grad|_K:  8.816e-08  alpha:  2.064e-01  linmin:  9.427e-06  t[s]:  38551.64
	FillingsUpdate:  mu: -0.207252586  nElectrons: 330.000000
	SubspaceRotationAdjust: set factor to 0.0502
ElecMinimize: Iter:  23  F: -1802.357287979554258  |grad|_K:  6.537e-08  alpha:  3.218e-01  linmin: -1.110e-04  t[s]:  38804.97
	FillingsUpdate:  mu: -0.207239673  nElectrons: 330.000000
	SubspaceRotationAdjust: set factor to 0.0651
ElecMinimize: Iter:  24  F: -1802.357288044573579  |grad|_K:  5.970e-08  alpha:  5.020e-01  linmin:  6.219e-05  t[s]:  39061.17
	FillingsUpdate:  mu: -0.207232911  nElectrons: 330.000000
	SubspaceRotationAdjust: set factor to 0.0447
ElecMinimize: Iter:  25  F: -1802.357288085079290  |grad|_K:  8.262e-08  alpha:  3.813e-01  linmin:  5.529e-05  t[s]:  39310.84
	FillingsUpdate:  mu: -0.207220033  nElectrons: 330.000000
	SubspaceRotationAdjust: set factor to 0.0409
ElecMinimize: Iter:  26  F: -1802.357288120145313  |grad|_K:  5.080e-08  alpha:  1.700e-01  linmin:  1.477e-05  t[s]:  39562.97
ElecMinimize: 	Predicted alpha/alphaT>3.000000, increasing alphaT to 5.101434e-01.
	FillingsUpdate:  mu: -0.207210952  nElectrons: 330.000000
	SubspaceRotationAdjust: set factor to 0.0519
ElecMinimize: Iter:  27  F: -1802.357288162849272  |grad|_K:  4.668e-08  alpha:  5.473e-01  linmin: -1.592e-05  t[s]:  39873.28
	FillingsUpdate:  mu: -0.207207518  nElectrons: 330.000000
	SubspaceRotationAdjust: set factor to 0.044
ElecMinimize: Iter:  28  F: -1802.357288186897449  |grad|_K:  5.176e-08  alpha:  3.603e-01  linmin:  2.446e-05  t[s]:  40131.53
	FillingsUpdate:  mu: -0.207199883  nElectrons: 330.000000
	SubspaceRotationAdjust: set factor to 0.0363
ElecMinimize: Iter:  29  F: -1802.357288203253120  |grad|_K:  3.715e-08  alpha:  2.049e-01  linmin:  2.615e-05  t[s]:  40386.84
	FillingsUpdate:  mu: -0.207194631  nElectrons: 330.000000
	SubspaceRotationAdjust: set factor to 0.051
ElecMinimize: Iter:  30  F: -1802.357288221182444  |grad|_K:  2.802e-08  alpha:  4.249e-01  linmin: -1.139e-04  t[s]:  40640.56
	FillingsUpdate:  mu: -0.207194889  nElectrons: 330.000000
	SubspaceRotationAdjust: set factor to 0.04
ElecMinimize: Iter:  31  F: -1802.357288231329221  |grad|_K:  3.182e-08  alpha:  4.040e-01  linmin: -1.073e-04  t[s]:  40894.01
	FillingsUpdate:  mu: -0.207192982  nElectrons: 330.000000
	SubspaceRotationAdjust: set factor to 0.0356
ElecMinimize: Iter:  32  F: -1802.357288239757281  |grad|_K:  2.810e-08  alpha:  2.415e-01  linmin:  7.996e-05  t[s]:  41147.79
	FillingsUpdate:  mu: -0.207193912  nElectrons: 330.000000
	SubspaceRotationAdjust: set factor to 0.0551
ElecMinimize: Iter:  33  F: -1802.357288248819941  |grad|_K:  2.186e-08  alpha:  3.573e-01  linmin: -3.881e-04  t[s]:  41402.71
ElecMinimize: Converged (|Delta F|<1.000000e-08 for 2 iters).
Setting wave functions to eigenvectors of Hamiltonian

# Ionic positions in lattice coordinates:
ion O   0.499999996056941   0.500000003943059   0.331864765289158 1
ion C   0.499999835884944   0.500000164115056   0.280862006804872 1
ion Pt   0.333300000000000   0.166700000000000  -0.200100000000000 0
ion Pt   0.333300000000000   0.666700000000000  -0.200100000000000 0
ion Pt   0.833300000000000   0.166700000000000  -0.200100000000000 0
ion Pt   0.833300000000000   0.666700000000000  -0.200100000000000 0
ion Pt   0.000000000000000   0.000000000000000  -0.100000000000000 0
ion Pt   0.000000000000000   0.500000000000000  -0.100000000000000 0
ion Pt   0.500000000000000   0.000000000000000  -0.100000000000000 0
ion Pt   0.500000000000000   0.500000000000000  -0.100000000000000 0
ion Pt   0.166727185515077   0.333315869275210   0.000015942860056 1
ion Pt   0.166698629699405   0.833301370300595  -0.000134946835860 1
ion Pt   0.666684130439305   0.333315869560695   0.000015933285741 1
ion Pt   0.666684130724790   0.833272814484923   0.000015942860056 1
ion Pt   0.333288395717024   0.166672528564868   0.099913974386793 1
ion Pt   0.333288584592237   0.666711415407762   0.099913925677468 1
ion Pt   0.833301650353052   0.166698349646948   0.099959092862834 1
ion Pt   0.833327471435132   0.666711604282976   0.099913974386793 1
ion Pt  -0.000007057740319   0.000007057740319   0.200015695973739 1
ion Pt  -0.000007026324822   0.499987434566213   0.200015653917206 1
ion Pt   0.500012565433787   0.000007026324822   0.200015653917206 1
ion Pt   0.499999838657761   0.500000161342239   0.200347765524709 1


# Forces in Lattice coordinates:
force O   0.000003422628532  -0.000003422628532  -0.021888277060327 1
force C  -0.000024782891729   0.000024782891729   0.517859620864398 1
force Pt   0.000040963423410  -0.000120947415494  -0.018217027164492 0
force Pt  -0.000045546137552   0.000045546137552  -0.018199254865296 0
force Pt   0.000032931700400  -0.000032931700400  -0.003230822026670 0
force Pt   0.000120947415494  -0.000040963423410  -0.018217027164492 0
force Pt  -0.001716434974662   0.001716434974662   0.072445845940268 0
force Pt   0.000013840937588  -0.001758399572552   0.072321254724687 0
force Pt   0.001758399572552  -0.000013840937588   0.072321254724687 0
force Pt   0.000016619804216  -0.000016619804216   0.077650223597169 0
force Pt   0.001419538985859   0.000224267605228   0.018027529126873 1
force Pt  -0.000204018380393   0.000204018380393  -0.216495619390184 1
force Pt  -0.001871391933263   0.001871391933263   0.018014420902396 1
force Pt  -0.000224267605228  -0.001419538985859   0.018027529126873 1
force Pt   0.000210067928402  -0.000815545868995  -0.129341586114144 1
force Pt  -0.000372285140699   0.000372285140699  -0.129439838284024 1
force Pt   0.000244403703692  -0.000244403703692  -0.068242948461474 1
force Pt   0.000815545868995  -0.000210067928402  -0.129341586114144 1
force Pt  -0.000500156742682   0.000500156742682  -0.144520746700692 1
force Pt  -0.000072303464361  -0.000354133888047  -0.144759559081641 1
force Pt   0.000354133888047   0.000072303464361  -0.144759559081641 1
force Pt  -0.000026135437155   0.000026135437155   0.296555032337728 1

# Energy components:
   Eewald =   -28044.7521487240337592
       EH =   -26527.6566108617189457
     Eloc =    52454.7113072333013406
      Enl =      -17.9944176362828188
      Exc =     -571.5888194672207874
 Exc_core =      324.9288369316084868
       KE =      580.2244755504036675
-------------------------------------
     Etot =    -1802.1273769739461841
       TS =        0.2299112748737875
-------------------------------------
        F =    -1802.3572882488199411

IonicMinimize: Iter:   2  F: -1802.357288248819941  |grad|_K:  2.608e-03  alpha:  1.000e+00  linmin: -5.699e-01  t[s]:  41445.39

#--- Lowdin population analysis ---
# oxidation-state O -0.095
# oxidation-state C +0.530
# oxidation-state Pt +0.009 +0.009 +0.009 +0.009 +0.013 +0.013 +0.013 +0.013 +0.015 +0.003 +0.015 +0.015 -0.008 -0.008 +0.008 -0.008 -0.026 -0.026 -0.026 -0.152


-------- Electronic minimization -----------
	FillingsUpdate:  mu: -0.207376259  nElectrons: 330.000000
ElecMinimize: Iter:   0  F: -1802.357369207509691  |grad|_K:  1.959e-06  alpha:  1.000e+00
	FillingsUpdate:  mu: -0.207236438  nElectrons: 330.000000
	SubspaceRotationAdjust: set factor to 0.0318
ElecMinimize: Iter:   1  F: -1802.357382214931931  |grad|_K:  1.022e-06  alpha:  1.116e-01  linmin: -3.231e-05  t[s]:  41914.80
ElecMinimize: 	Predicted alpha/alphaT>3.000000, increasing alphaT to 3.346625e-01.
	FillingsUpdate:  mu: -0.207068163  nElectrons: 330.000000
	SubspaceRotationAdjust: set factor to 0.0464
ElecMinimize: Iter:   2  F: -1802.357392891986137  |grad|_K:  4.707e-07  alpha:  3.364e-01  linmin: -7.370e-07  t[s]:  42222.16
	FillingsUpdate:  mu: -0.207133624  nElectrons: 330.000000
	SubspaceRotationAdjust: set factor to 0.0581
ElecMinimize: Iter:   3  F: -1802.357397040673732  |grad|_K:  4.780e-07  alpha:  6.162e-01  linmin: -3.764e-05  t[s]:  42471.02
	FillingsUpdate:  mu: -0.207049706  nElectrons: 330.000000
	SubspaceRotationAdjust: set factor to 0.0443
ElecMinimize: Iter:   4  F: -1802.357402573675927  |grad|_K:  8.199e-07  alpha:  7.966e-01  linmin: -2.131e-06  t[s]:  42721.07
	FillingsUpdate:  mu: -0.207003461  nElectrons: 330.000000
	SubspaceRotationAdjust: set factor to 0.0331
ElecMinimize: Iter:   5  F: -1802.357406795274073  |grad|_K:  7.874e-07  alpha:  2.068e-01  linmin:  1.367e-06  t[s]:  42973.95
ElecMinimize: 	Predicted alpha/alphaT>3.000000, increasing alphaT to 6.203036e-01.
	FillingsUpdate:  mu: -0.206530510  nElectrons: 330.000000
	SubspaceRotationAdjust: set factor to 0.0413
ElecMinimize: Iter:   6  F: -1802.357421771088866  |grad|_K:  9.407e-07  alpha:  7.951e-01  linmin: -6.699e-07  t[s]:  43286.45
	FillingsUpdate:  mu: -0.206342725  nElectrons: 330.000000
	SubspaceRotationAdjust: set factor to 0.034
ElecMinimize: Iter:   7  F: -1802.357431447070894  |grad|_K:  1.000e-06  alpha:  3.599e-01  linmin:  1.744e-06  t[s]:  43536.87
	FillingsUpdate:  mu: -0.206384411  nElectrons: 330.000000
	SubspaceRotationAdjust: set factor to 0.0273
ElecMinimize: Iter:   8  F: -1802.357439194782955  |grad|_K:  5.918e-07  alpha:  2.550e-01  linmin:  3.080e-07  t[s]:  43785.46
	FillingsUpdate:  mu: -0.206319263  nElectrons: 330.000000
	SubspaceRotationAdjust: set factor to 0.0347
ElecMinimize: Iter:   9  F: -1802.357443541204020  |grad|_K:  4.191e-07  alpha:  4.084e-01  linmin: -1.516e-05  t[s]:  44038.32
	FillingsUpdate:  mu: -0.206250710  nElectrons: 330.000000
	SubspaceRotationAdjust: set factor to 0.0335
ElecMinimize: Iter:  10  F: -1802.357445405767521  |grad|_K:  3.240e-07  alpha:  3.491e-01  linmin:  7.629e-07  t[s]:  44291.90
	FillingsUpdate:  mu: -0.206284106  nElectrons: 330.000000
	SubspaceRotationAdjust: set factor to 0.0322
ElecMinimize: Iter:  11  F: -1802.357446425443641  |grad|_K:  2.767e-07  alpha:  3.199e-01  linmin: -9.561e-06  t[s]:  44541.84
	FillingsUpdate:  mu: -0.206357193  nElectrons: 330.000000
	SubspaceRotationAdjust: set factor to 0.0403
ElecMinimize: Iter:  12  F: -1802.357447468136343  |grad|_K:  2.303e-07  alpha:  4.487e-01  linmin:  2.605e-05  t[s]:  44791.66
	FillingsUpdate:  mu: -0.206461530  nElectrons: 330.000000
	SubspaceRotationAdjust: set factor to 0.0471
ElecMinimize: Iter:  13  F: -1802.357448602895374  |grad|_K:  2.354e-07  alpha:  7.063e-01  linmin:  2.488e-05  t[s]:  45043.91
	FillingsUpdate:  mu: -0.206539420  nElectrons: 330.000000
	SubspaceRotationAdjust: set factor to 0.0387
ElecMinimize: Iter:  14  F: -1802.357449220759918  |grad|_K:  2.795e-07  alpha:  3.677e-01  linmin:  4.951e-06  t[s]:  45291.92
	FillingsUpdate:  mu: -0.206603378  nElectrons: 330.000000
	SubspaceRotationAdjust: set factor to 0.0302
ElecMinimize: Iter:  15  F: -1802.357449807663670  |grad|_K:  1.593e-07  alpha:  2.474e-01  linmin: -1.145e-05  t[s]:  45543.13
	FillingsUpdate:  mu: -0.206702074  nElectrons: 330.000000
	SubspaceRotationAdjust: set factor to 0.0369
ElecMinimize: Iter:  16  F: -1802.357450216012012  |grad|_K:  1.122e-07  alpha:  5.310e-01  linmin:  3.106e-05  t[s]:  45794.13
	FillingsUpdate:  mu: -0.206745360  nElectrons: 330.000000
	SubspaceRotationAdjust: set factor to 0.0424
ElecMinimize: Iter:  17  F: -1802.357450383506148  |grad|_K:  8.813e-08  alpha:  4.394e-01  linmin:  2.547e-06  t[s]:  46041.94
	FillingsUpdate:  mu: -0.206766267  nElectrons: 330.000000
	SubspaceRotationAdjust: set factor to 0.0369
ElecMinimize: Iter:  18  F: -1802.357450476974009  |grad|_K:  8.137e-08  alpha:  3.928e-01  linmin: -6.720e-05  t[s]:  46291.84
	FillingsUpdate:  mu: -0.206789783  nElectrons: 330.000000
	SubspaceRotationAdjust: set factor to 0.0298
ElecMinimize: Iter:  19  F: -1802.357450528869094  |grad|_K:  6.357e-08  alpha:  2.569e-01  linmin: -7.167e-05  t[s]:  46541.65
	FillingsUpdate:  mu: -0.206813286  nElectrons: 330.000000
	SubspaceRotationAdjust: set factor to 0.0345
ElecMinimize: Iter:  20  F: -1802.357450579118904  |grad|_K:  4.534e-08  alpha:  4.290e-01  linmin:  3.235e-04  t[s]:  46791.90
	FillingsUpdate:  mu: -0.206829463  nElectrons: 330.000000
	SubspaceRotationAdjust: set factor to 0.039
ElecMinimize: Iter:  21  F: -1802.357450608552426  |grad|_K:  3.370e-08  alpha:  5.028e-01  linmin:  2.615e-04  t[s]:  47041.68
	FillingsUpdate:  mu: -0.206837487  nElectrons: 330.000000
	SubspaceRotationAdjust: set factor to 0.0324
ElecMinimize: Iter:  22  F: -1802.357450622987244  |grad|_K:  3.439e-08  alpha:  4.370e-01  linmin:  3.721e-04  t[s]:  47291.71
	FillingsUpdate:  mu: -0.206838049  nElectrons: 330.000000
	SubspaceRotationAdjust: set factor to 0.0269
ElecMinimize: Iter:  23  F: -1802.357450631259326  |grad|_K:  2.200e-08  alpha:  2.341e-01  linmin:  1.297e-04  t[s]:  47541.84
	FillingsUpdate:  mu: -0.206839075  nElectrons: 330.000000
	SubspaceRotationAdjust: set factor to 0.0309
ElecMinimize: Iter:  24  F: -1802.357450636984140  |grad|_K:  1.468e-08  alpha:  3.023e-01  linmin: -2.262e-03  t[s]:  47793.00
ElecMinimize: Converged (|Delta F|<1.000000e-08 for 2 iters).
Setting wave functions to eigenvectors of Hamiltonian

# Ionic positions in lattice coordinates:
ion O   0.500000007670212   0.499999992329788   0.331886713646314 1
ion C   0.499999727573015   0.500000272426985   0.281030689226907 1
ion Pt   0.333300000000000   0.166700000000000  -0.200100000000000 0
ion Pt   0.333300000000000   0.666700000000000  -0.200100000000000 0
ion Pt   0.833300000000000   0.166700000000000  -0.200100000000000 0
ion Pt   0.833300000000000   0.666700000000000  -0.200100000000000 0
ion Pt   0.000000000000000   0.000000000000000  -0.100000000000000 0
ion Pt   0.000000000000000   0.500000000000000  -0.100000000000000 0
ion Pt   0.500000000000000   0.000000000000000  -0.100000000000000 0
ion Pt   0.500000000000000   0.500000000000000  -0.100000000000000 0
ion Pt   0.166741260515184   0.333324380545248   0.000023532856238 1
ion Pt   0.166697736668341   0.833302263331659  -0.000220780560177 1
ion Pt   0.666675606496587   0.333324393503413   0.000023518243782 1
ion Pt   0.666675619454752   0.833258739484816   0.000023532856238 1
ion Pt   0.333285775763303   0.166664525209176   0.099862165521906 1
ion Pt   0.333286068279486   0.666713931720514   0.099862079000867 1
ion Pt   0.833302720316564   0.166697279683436   0.099932196117911 1
ion Pt   0.833335474790824   0.666714224236697   0.099862165521906 1
ion Pt  -0.000009609854146   0.000009609854146   0.199959014059136 1
ion Pt  -0.000009568536107   0.499983300404949   0.199958889354087 1
ion Pt   0.500016699595051   0.000009568536107   0.199958889354087 1
ion Pt   0.499999726876264   0.500000273123736   0.200470517685556 1


# Forces in Lattice coordinates:
force O   0.000003829629875  -0.000003829629875   0.281309843000997 1
force C  -0.000028551770081   0.000028551770081   0.189692297085122 1
force Pt   0.000038159615973  -0.000079462429043  -0.017967264668487 0
force Pt  -0.000007745342822   0.000007745342822  -0.017944275682796 0
force Pt   0.000038926537737  -0.000038926537737  -0.001829831342020 0
force Pt   0.000079462429043  -0.000038159615973  -0.017967264668487 0
force Pt  -0.002460371549668   0.002460371549668   0.070087844964958 0
force Pt   0.000013797000428  -0.002492329183405   0.070027494299593 0
force Pt   0.002492329183405  -0.000013797000428   0.070027494299593 0
force Pt   0.000017618215925  -0.000017618215925   0.077124293490897 0
force Pt   0.000968602770843   0.000218493033009   0.011303509848920 1
force Pt  -0.000193385922706   0.000193385922706  -0.206991626540802 1
force Pt  -0.001406914111140   0.001406914111140   0.011367716578291 1
force Pt  -0.000218493033009  -0.000968602770843   0.011303509848920 1
force Pt   0.000213456187111  -0.000454352978438  -0.120036761786274 1
force Pt  -0.000023329169308   0.000023329169308  -0.120115916181857 1
force Pt   0.000223939418657  -0.000223939418657  -0.066704032581039 1
force Pt   0.000454352978438  -0.000213456187111  -0.120036761786274 1
force Pt  -0.000241091256979   0.000241091256979  -0.140349085621059 1
force Pt  -0.000057939186318  -0.000093813236115  -0.140521003386215 1
force Pt   0.000093813236115   0.000057939186318  -0.140521003386215 1
force Pt  -0.000039406116700   0.000039406116700   0.305218985464594 1

# Energy components:
   Eewald =   -28043.9576176011287316
       EH =   -26526.7589592228359834
     Eloc =    52453.0127528303710278
      Enl =      -17.9916484323911909
      Exc =     -571.5913487900853625
 Exc_core =      324.9288368764849224
       KE =      580.2304167400360484
-------------------------------------
     Etot =    -1802.1275675995489109
       TS =        0.2298830374353037
-------------------------------------
        F =    -1802.3574506369841401

IonicMinimize: Iter:   3  F: -1802.357450636984140  |grad|_K:  2.160e-03  alpha:  1.000e+00  linmin: -8.460e-01  t[s]:  47835.22

#--- Lowdin population analysis ---
# oxidation-state O -0.093
# oxidation-state C +0.532
# oxidation-state Pt +0.009 +0.009 +0.010 +0.009 +0.012 +0.012 +0.012 +0.012 +0.015 +0.004 +0.015 +0.015 -0.008 -0.008 +0.008 -0.008 -0.027 -0.027 -0.027 -0.154


-------- Electronic minimization -----------
	FillingsUpdate:  mu: -0.192385934  nElectrons: 330.000000
ElecMinimize: Iter:   0  F: -1802.248313356741392  |grad|_K:  1.012e-04  alpha:  1.000e+00
	FillingsUpdate:  mu: -0.166219870  nElectrons: 330.000000
	SubspaceRotationAdjust: set factor to 0.02
ElecMinimize: Iter:   1  F: -1802.329811434690328  |grad|_K:  5.016e-05  alpha:  2.615e-01  linmin: -1.612e-04  t[s]:  48289.18
	FillingsUpdate:  mu: -0.189126984  nElectrons: 330.000000
	SubspaceRotationAdjust: set factor to 0.0124
[...]
	SubspaceRotationAdjust: set factor to 0.00462
ElecMinimize: Iter:   5  G: -1745.069512822425850  |grad|_K:  5.095e-06  alpha:  3.289e-01  linmin: -3.974e-07  t[s]:   4718.95
	FillingsUpdate:  mu: -0.173600000  nElectrons: 330.032634
	SubspaceRotationAdjust: set factor to 0.00496
ElecMinimize: Iter:   6  G: -1745.069782746718602  |grad|_K:  3.458e-06  alpha:  3.423e-01  linmin:  1.710e-05  t[s]:   4972.97
	FillingsUpdate:  mu: -0.173600000  nElectrons: 330.027421
	SubspaceRotationAdjust: set factor to 0.00583
ElecMinimize: Iter:   7  G: -1745.069921917840247  |grad|_K:  2.623e-06  alpha:  3.831e-01  linmin:  1.862e-05  t[s]:   5229.72
	FillingsUpdate:  mu: -0.173600000  nElectrons: 330.031659
	SubspaceRotationAdjust: set factor to 0.00645
ElecMinimize: Iter:   8  G: -1745.069991587950653  |grad|_K:  1.831e-06  alpha:  3.334e-01  linmin: -2.342e-05  t[s]:   5484.99
	FillingsUpdate:  mu: -0.173600000  nElectrons: 330.033313
	SubspaceRotationAdjust: set factor to 0.00726
ElecMinimize: Iter:   9  G: -1745.070029430205523  |grad|_K:  1.359e-06  alpha:  3.717e-01  linmin: -1.341e-05  t[s]:   5741.45
	FillingsUpdate:  mu: -0.173600000  nElectrons: 330.031043
	SubspaceRotationAdjust: set factor to 0.0068
ElecMinimize: Iter:  10  G: -1745.070045281378270  |grad|_K:  8.541e-07  alpha:  2.824e-01  linmin:  6.769e-06  t[s]:   6000.48
	FillingsUpdate:  mu: -0.173600000  nElectrons: 330.031216
	SubspaceRotationAdjust: set factor to 0.00865
ElecMinimize: Iter:  11  G: -1745.070052588933322  |grad|_K:  5.730e-07  alpha:  3.297e-01  linmin: -1.873e-05  t[s]:   6256.67
	FillingsUpdate:  mu: -0.173600000  nElectrons: 330.032100
	SubspaceRotationAdjust: set factor to 0.00906
ElecMinimize: Iter:  12  G: -1745.070055761215599  |grad|_K:  4.279e-07  alpha:  3.181e-01  linmin:  3.893e-05  t[s]:   6511.25
	FillingsUpdate:  mu: -0.173600000  nElectrons: 330.031322
	SubspaceRotationAdjust: set factor to 0.011
ElecMinimize: Iter:  13  G: -1745.070057679655747  |grad|_K:  3.798e-07  alpha:  3.448e-01  linmin: -2.653e-05  t[s]:   6769.92
ElecMinimize: Converged (|Delta G|<3.475477e-06 for 2 iters).
Setting wave functions to eigenvectors of Hamiltonian

Electronic minimization # 2 changed total free energy by -1.446665e-05 at t[s]:   6781.28

---------------------- Fluid Minimization # 3 -----------------------
FluidMinimize: Iter:   0  G: -0.005824670222969  |grad|_K:  1.747e-04  alpha:  1.000e+00
FluidMinimize: Iter:   1  G: -0.005824670222969  |grad|_K:  1.747e-04  alpha:  6.813e-30  linmin: -1.437e-01  cgtest:  1.000e+00  t[s]:   6782.12
FluidMinimize: Iter:   2  G: -0.005824670222969  |grad|_K:  1.747e-04  alpha:  6.813e-30  linmin: -1.437e-01  cgtest:  1.000e+00  t[s]:   6782.66
FluidMinimize: Encountered beta<0, resetting CG.
FluidMinimize: Converged (|Delta G|<1.446665e-07 for 2 iters).

Fluid minimization # 3 changed total free energy by -1.214306e-17 at t[s]:   6782.94

-------------------- Electronic Minimization # 3 ---------------------
	FillingsUpdate:  mu: -0.173600000  nElectrons: 330.165787
ElecMinimize: Iter:   0  G: -1745.056239764248630  |grad|_K:  6.315e-05  alpha:  1.000e+00
	FillingsUpdate:  mu: -0.173600000  nElectrons: 330.017393
	SubspaceRotationAdjust: set factor to 0.0113
ElecMinimize: Iter:   1  G: -1745.069560769739155  |grad|_K:  4.085e-06  alpha:  1.094e-01  linmin: -1.520e-02  t[s]:   7150.93
ElecMinimize: 	Predicted alpha/alphaT>3.000000, increasing alphaT to 3.282874e-01.
	FillingsUpdate:  mu: -0.173600000  nElectrons: 330.014860
	SubspaceRotationAdjust: set factor to 0.014
ElecMinimize: Iter:   2  G: -1745.069753621289010  |grad|_K:  2.076e-06  alpha:  3.785e-01  linmin:  4.185e-06  t[s]:   7469.42
	FillingsUpdate:  mu: -0.173600000  nElectrons: 330.021576
	SubspaceRotationAdjust: set factor to 0.00863
ElecMinimize: Iter:   3  G: -1745.069803426289354  |grad|_K:  2.310e-06  alpha:  3.805e-01  linmin: -3.237e-05  t[s]:   7726.29
	FillingsUpdate:  mu: -0.173600000  nElectrons: 330.016945
	SubspaceRotationAdjust: set factor to 0.00687
ElecMinimize: Iter:   4  G: -1745.069837269549453  |grad|_K:  1.530e-06  alpha:  2.087e-01  linmin: -1.230e-05  t[s]:   7982.23
	FillingsUpdate:  mu: -0.173600000  nElectrons: 330.018337
	SubspaceRotationAdjust: set factor to 0.009
ElecMinimize: Iter:   5  G: -1745.069881528533188  |grad|_K:  1.467e-06  alpha:  6.225e-01  linmin:  1.380e-05  t[s]:   8238.15
	FillingsUpdate:  mu: -0.173600000  nElectrons: 330.023954
	SubspaceRotationAdjust: set factor to 0.00688
ElecMinimize: Iter:   6  G: -1745.069915460617494  |grad|_K:  1.622e-06  alpha:  5.195e-01  linmin: -1.532e-05  t[s]:   8497.41
	FillingsUpdate:  mu: -0.173600000  nElectrons: 330.020143
	SubspaceRotationAdjust: set factor to 0.00534
ElecMinimize: Iter:   7  G: -1745.069943624165717  |grad|_K:  1.271e-06  alpha:  3.524e-01  linmin:  1.320e-07  t[s]:   8755.65
	FillingsUpdate:  mu: -0.173600000  nElectrons: 330.020983
	SubspaceRotationAdjust: set factor to 0.00721
ElecMinimize: Iter:   8  G: -1745.069972659154018  |grad|_K:  1.073e-06  alpha:  5.912e-01  linmin: -5.490e-06  t[s]:   9010.96
	FillingsUpdate:  mu: -0.173600000  nElectrons: 330.024814
	SubspaceRotationAdjust: set factor to 0.0066
ElecMinimize: Iter:   9  G: -1745.069991703609503  |grad|_K:  1.011e-06  alpha:  5.446e-01  linmin: -9.428e-06  t[s]:   9269.12
	FillingsUpdate:  mu: -0.173600000  nElectrons: 330.022537
	SubspaceRotationAdjust: set factor to 0.00568
ElecMinimize: Iter:  10  G: -1745.070006540838676  |grad|_K:  8.860e-07  alpha:  4.774e-01  linmin:  8.996e-06  t[s]:   9526.71
	FillingsUpdate:  mu: -0.173600000  nElectrons: 330.024188
	SubspaceRotationAdjust: set factor to 0.00672
ElecMinimize: Iter:  11  G: -1745.070020341906456  |grad|_K:  7.565e-07  alpha:  5.788e-01  linmin: -6.698e-08  t[s]:   9785.06
	FillingsUpdate:  mu: -0.173600000  nElectrons: 330.025507
	SubspaceRotationAdjust: set factor to 0.00768
ElecMinimize: Iter:  12  G: -1745.070031577612099  |grad|_K:  7.267e-07  alpha:  6.463e-01  linmin: -1.084e-06  t[s]:  10042.88
	FillingsUpdate:  mu: -0.173600000  nElectrons: 330.023660
	SubspaceRotationAdjust: set factor to 0.0073
ElecMinimize: Iter:  13  G: -1745.070040479007503  |grad|_K:  7.767e-07  alpha:  5.548e-01  linmin:  4.012e-06  t[s]:  10301.20
	FillingsUpdate:  mu: -0.173600000  nElectrons: 330.026054
	SubspaceRotationAdjust: set factor to 0.00667
ElecMinimize: Iter:  14  G: -1745.070050552327302  |grad|_K:  7.798e-07  alpha:  5.497e-01  linmin: -4.074e-06  t[s]:  10557.76
	FillingsUpdate:  mu: -0.173600000  nElectrons: 330.025158
	SubspaceRotationAdjust: set factor to 0.00703
ElecMinimize: Iter:  15  G: -1745.070064067734393  |grad|_K:  8.078e-07  alpha:  7.318e-01  linmin:  8.141e-06  t[s]:  10816.27
	FillingsUpdate:  mu: -0.173600000  nElectrons: 330.025112
	SubspaceRotationAdjust: set factor to 0.00773
ElecMinimize: Iter:  16  G: -1745.070075148237493  |grad|_K:  7.303e-07  alpha:  5.592e-01  linmin:  2.938e-07  t[s]:  11073.18
	FillingsUpdate:  mu: -0.173600000  nElectrons: 330.026273
	SubspaceRotationAdjust: set factor to 0.00768
ElecMinimize: Iter:  17  G: -1745.070082785843397  |grad|_K:  5.435e-07  alpha:  4.714e-01  linmin:  1.440e-06  t[s]:  11330.54
	FillingsUpdate:  mu: -0.173600000  nElectrons: 330.025244
	SubspaceRotationAdjust: set factor to 0.00684
ElecMinimize: Iter:  18  G: -1745.070086684878333  |grad|_K:  4.070e-07  alpha:  4.345e-01  linmin:  1.266e-05  t[s]:  11585.24
	FillingsUpdate:  mu: -0.173600000  nElectrons: 330.026285
	SubspaceRotationAdjust: set factor to 0.00643
ElecMinimize: Iter:  19  G: -1745.070088752580659  |grad|_K:  3.238e-07  alpha:  4.109e-01  linmin: -1.392e-05  t[s]:  11841.79
	FillingsUpdate:  mu: -0.173600000  nElectrons: 330.025938
	SubspaceRotationAdjust: set factor to 0.0079
ElecMinimize: Iter:  20  G: -1745.070090500416882  |grad|_K:  2.935e-07  alpha:  5.490e-01  linmin:  7.900e-06  t[s]:  12098.16
	FillingsUpdate:  mu: -0.173600000  nElectrons: 330.025724
	SubspaceRotationAdjust: set factor to 0.00903
ElecMinimize: Iter:  21  G: -1745.070092316688942  |grad|_K:  3.449e-07  alpha:  6.941e-01  linmin:  1.628e-05  t[s]:  12354.58
	FillingsUpdate:  mu: -0.173600000  nElectrons: 330.027096
	SubspaceRotationAdjust: set factor to 0.00804
ElecMinimize: Iter:  22  G: -1745.070094590980034  |grad|_K:  4.431e-07  alpha:  6.299e-01  linmin:  2.184e-06  t[s]:  12611.14
	FillingsUpdate:  mu: -0.173600000  nElectrons: 330.026096
	SubspaceRotationAdjust: set factor to 0.00621
ElecMinimize: Iter:  23  G: -1745.070097213625786  |grad|_K:  4.089e-07  alpha:  4.399e-01  linmin:  4.256e-07  t[s]:  12869.21
	FillingsUpdate:  mu: -0.173600000  nElectrons: 330.026878
	SubspaceRotationAdjust: set factor to 0.00669
ElecMinimize: Iter:  24  G: -1745.070099981200428  |grad|_K:  3.247e-07  alpha:  5.453e-01  linmin:  1.780e-05  t[s]:  13127.32
	FillingsUpdate:  mu: -0.173600000  nElectrons: 330.027434
	SubspaceRotationAdjust: set factor to 0.00672
ElecMinimize: Iter:  25  G: -1745.070101418898730  |grad|_K:  2.230e-07  alpha:  4.489e-01  linmin: -1.537e-05  t[s]:  13384.69
	FillingsUpdate:  mu: -0.173600000  nElectrons: 330.027007
	SubspaceRotationAdjust: set factor to 0.00523
ElecMinimize: Iter:  26  G: -1745.070102024157450  |grad|_K:  1.431e-07  alpha:  4.004e-01  linmin: -2.573e-05  t[s]:  13643.10
	FillingsUpdate:  mu: -0.173600000  nElectrons: 330.027341
	SubspaceRotationAdjust: set factor to 0.00503
ElecMinimize: Iter:  27  G: -1745.070102271842416  |grad|_K:  9.654e-08  alpha:  3.991e-01  linmin:  4.224e-05  t[s]:  13905.54
	FillingsUpdate:  mu: -0.173600000  nElectrons: 330.027340
	SubspaceRotationAdjust: set factor to 0.0067
ElecMinimize: Iter:  28  G: -1745.070102407610420  |grad|_K:  7.764e-08  alpha:  4.801e-01  linmin:  1.742e-04  t[s]:  14162.31
	FillingsUpdate:  mu: -0.173600000  nElectrons: 330.027191
	SubspaceRotationAdjust: set factor to 0.00705
ElecMinimize: Iter:  29  G: -1745.070102515276403  |grad|_K:  7.886e-08  alpha:  5.775e-01  linmin: -4.274e-04  t[s]:  14422.12
ElecMinimize: Converged (|Delta G|<1.446665e-07 for 2 iters).
Setting wave functions to eigenvectors of Hamiltonian

Electronic minimization # 3 changed total free energy by -4.483562e-05 at t[s]:  14433.40

---------------------- Fluid Minimization # 4 -----------------------
FluidMinimize: Iter:   0  G: -0.004917550332687  |grad|_K:  1.579e-04  alpha:  1.000e+00
FluidMinimize: 	Step increased G by 5.204170e-18, reducing alpha to 2.827428e-28.
FluidMinimize: 	Step increased G by 5.204170e-18, reducing alpha to 2.827428e-29.
FluidMinimize: 	Step increased G by 6.938894e-18, reducing alpha to 2.827428e-30.
FluidMinimize: 	Step increased G by 5.204170e-18, reducing alpha to 2.827428e-31.
FluidMinimize: 	Step increased G by 5.204170e-18, reducing alpha to 2.827428e-32.
FluidMinimize: 	Step increased G by 5.204170e-18, reducing alpha to 2.827428e-33.
FluidMinimize: 	Step failed to reduce G after 6 attempts. Quitting step.
FluidMinimize: 	Undoing step.
FluidMinimize: 	Step failed along negative gradient direction.
FluidMinimize: Probably at roundoff error limit. (Stopping)

Fluid minimization # 4 changed total free energy by 5.204170e-18 at t[s]:  14436.07

-------------------- Electronic Minimization # 4 ---------------------
	FillingsUpdate:  mu: -0.173600000  nElectrons: 330.121589
ElecMinimize: Iter:   0  G: -1745.065248399371967  |grad|_K:  3.048e-05  alpha:  1.000e+00
	FillingsUpdate:  mu: -0.173600000  nElectrons: 330.032921
	SubspaceRotationAdjust: set factor to 0.0156
ElecMinimize: Iter:   1  G: -1745.069977993829298  |grad|_K:  2.934e-06  alpha:  1.682e-01  linmin:  7.837e-03  t[s]:  14800.98
	FillingsUpdate:  mu: -0.173600000  nElectrons: 330.028778
	SubspaceRotationAdjust: set factor to 0.0193
ElecMinimize: Iter:   2  G: -1745.070067495967805  |grad|_K:  1.042e-06  alpha:  3.435e-01  linmin: -9.780e-05  t[s]:  15057.91
	FillingsUpdate:  mu: -0.173600000  nElectrons: 330.026128
	SubspaceRotationAdjust: set factor to 0.0123
ElecMinimize: Iter:   3  G: -1745.070079158084127  |grad|_K:  9.313e-07  alpha:  3.532e-01  linmin: -2.779e-06  t[s]:  15319.85
	FillingsUpdate:  mu: -0.173600000  nElectrons: 330.027972
	SubspaceRotationAdjust: set factor to 0.00811
ElecMinimize: Iter:   4  G: -1745.070082162113295  |grad|_K:  5.629e-07  alpha:  1.140e-01  linmin:  4.852e-06  t[s]:  15580.20
ElecMinimize: 	Predicted alpha/alphaT>3.000000, increasing alphaT to 3.420045e-01.
	FillingsUpdate:  mu: -0.173600000  nElectrons: 330.027975
	SubspaceRotationAdjust: set factor to 0.00974
ElecMinimize: Iter:   5  G: -1745.070086399181946  |grad|_K:  4.501e-07  alpha:  4.403e-01  linmin:  1.040e-05  t[s]:  15899.46
	FillingsUpdate:  mu: -0.173600000  nElectrons: 330.026411
	SubspaceRotationAdjust: set factor to 0.00793
ElecMinimize: Iter:   6  G: -1745.070088570152848  |grad|_K:  4.877e-07  alpha:  3.528e-01  linmin: -1.115e-05  t[s]:  16154.28
	FillingsUpdate:  mu: -0.173600000  nElectrons: 330.027279
	SubspaceRotationAdjust: set factor to 0.00915
ElecMinimize: Iter:   7  G: -1745.070091735624828  |grad|_K:  4.022e-07  alpha:  4.381e-01  linmin: -2.340e-06  t[s]:  16411.47
	FillingsUpdate:  mu: -0.173600000  nElectrons: 330.028204
	SubspaceRotationAdjust: set factor to 0.00974
ElecMinimize: Iter:   8  G: -1745.070095070846946  |grad|_K:  4.929e-07  alpha:  6.788e-01  linmin:  1.070e-05  t[s]:  16670.36
	FillingsUpdate:  mu: -0.173600000  nElectrons: 330.026866
	SubspaceRotationAdjust: set factor to 0.00707
ElecMinimize: Iter:   9  G: -1745.070097439426263  |grad|_K:  4.402e-07  alpha:  3.208e-01  linmin: -1.111e-05  t[s]:  16927.21
	FillingsUpdate:  mu: -0.173600000  nElectrons: 330.027734
	SubspaceRotationAdjust: set factor to 0.00744
ElecMinimize: Iter:  10  G: -1745.070099893342785  |grad|_K:  3.133e-07  alpha:  4.167e-01  linmin:  1.274e-05  t[s]:  17186.11
	FillingsUpdate:  mu: -0.173600000  nElectrons: 330.028134
	SubspaceRotationAdjust: set factor to 0.00811
ElecMinimize: Iter:  11  G: -1745.070101314652902  |grad|_K:  2.548e-07  alpha:  4.774e-01  linmin:  3.095e-05  t[s]:  17446.12
	FillingsUpdate:  mu: -0.173600000  nElectrons: 330.027449
	SubspaceRotationAdjust: set factor to 0.00593
ElecMinimize: Iter:  12  G: -1745.070101964649893  |grad|_K:  1.769e-07  alpha:  3.293e-01  linmin:  9.443e-05  t[s]:  17704.50
	FillingsUpdate:  mu: -0.173600000  nElectrons: 330.027790
	SubspaceRotationAdjust: set factor to 0.00602
ElecMinimize: Iter:  13  G: -1745.070102356740108  |grad|_K:  1.248e-07  alpha:  4.129e-01  linmin:  3.225e-05  t[s]:  17963.36
	FillingsUpdate:  mu: -0.173600000  nElectrons: 330.027826
	SubspaceRotationAdjust: set factor to 0.0074
ElecMinimize: Iter:  14  G: -1745.070102559918269  |grad|_K:  1.022e-07  alpha:  4.312e-01  linmin: -7.629e-05  t[s]:  18221.83
ElecMinimize: Converged (|Delta G|<4.483562e-07 for 2 iters).
Setting wave functions to eigenvectors of Hamiltonian

Electronic minimization # 4 changed total free energy by -4.464187e-08 at t[s]:  18233.05

Fluid<-->Electron self-consistency loop converged to 1.000000e-05 hartrees after 4 minimization pairs at t[s]:  18233.05.

# Ionic positions in lattice coordinates:
ion O   0.500000123114013   0.499999876885987   0.333013195438857 1
ion C   0.499998228479957   0.500001771520043   0.282550181923305 1
ion Pt   0.333300000000000   0.166700000000000  -0.200100000000000 0
ion Pt   0.333300000000000   0.666700000000000  -0.200100000000000 0
ion Pt   0.833300000000000   0.166700000000000  -0.200100000000000 0
ion Pt   0.833300000000000   0.666700000000000  -0.200100000000000 0
ion Pt  -0.000000000000000  -0.000000000000000  -0.100000000000000 0
ion Pt  -0.000000000000000   0.500000000000000  -0.100000000000000 0
ion Pt   0.500000000000000  -0.000000000000000  -0.100000000000000 0
ion Pt   0.500000000000000   0.500000000000000  -0.100000000000000 0
ion Pt   0.166891192479483   0.333419191200378   0.000095425908589 1
ion Pt   0.166685575202431   0.833314424797569  -0.001352693627217 1
ion Pt   0.666580520206287   0.333419479793713   0.000095453726597 1
ion Pt   0.666580808799622   0.833108807520518   0.000095425908589 1
ion Pt   0.333289138388163   0.166633055922806   0.099195263623941 1
ion Pt   0.333290376017355   0.666709623982645   0.099194660152437 1
ion Pt   0.833316961794321   0.166683038205679   0.099561257074586 1
ion Pt   0.833366944077194   0.666710861611837   0.099195263623941 1
ion Pt  -0.000029432762703   0.000029432762703   0.199177665059013 1
ion Pt  -0.000028662073188   0.499957066449754   0.199176769989731 1
ion Pt   0.500042933550246   0.000028662073188   0.199176769989731 1
ion Pt   0.499998022006891   0.500001977993109   0.202081434116989 1


# Forces in Lattice coordinates:
force O   0.000002741543954  -0.000002741543954   1.210933745217538 1
force C  -0.000007222065416   0.000007222065416  -0.778428082989368 1
force Pt   0.000048477688627   0.000246385285619  -0.025483085524696 0
force Pt   0.000339175002079  -0.000339175002079  -0.025583484324227 0
force Pt   0.000042501879987  -0.000042501879987   0.000434064121377 0
force Pt  -0.000246385285619  -0.000048477688627  -0.025483085524696 0
force Pt  -0.010646824410045   0.010646824410045   0.030843779915617 0
force Pt  -0.000025302845330  -0.010604171862631   0.030635663924736 0
force Pt   0.010604171862631   0.000025302845330   0.030635663924736 0
force Pt  -0.000032763708219   0.000032763708219   0.079710185649852 0
force Pt  -0.003382901999498   0.000105787757130  -0.074471941130138 1
force Pt  -0.000146956691338   0.000146956691338  -0.020493639471692 1
force Pt   0.003145660094840  -0.003145660094840  -0.074326051583489 1
force Pt  -0.000105787757130   0.003382901999498  -0.074471941130138 1
force Pt   0.000149817197375   0.008918548954346   0.025232617256910 1
force Pt   0.009153698287215  -0.009153698287215   0.025176227416665 1
force Pt   0.000099270049391  -0.000099270049391  -0.053616593157332 1
force Pt  -0.008918548954346  -0.000149817197375   0.025232617256910 1
force Pt   0.003207760970808  -0.003207760970808  -0.135096582754048 1
force Pt  -0.000003007326905   0.003257450381654  -0.133237190092784 1
force Pt  -0.003257450381654   0.000003007326905  -0.133237190092784 1
force Pt  -0.000037141323444   0.000037141323444  -0.007313779320564 1

# Energy components:
   A_diel =       -0.0050578699005045
   Eewald =    26675.0080466361396248
       EH =    28281.8582502205936180
     Eloc =   -57074.5863937662361423
      Enl =      -17.9766300511699377
      Exc =     -571.6105334549366717
 Exc_core =      324.9288323192178609
       KE =      580.2510744734805712
  MuShift =       -0.0011199891394272
-------------------------------------
     Etot =    -1802.1335314819482392
       TS =        0.2294016885165913
-------------------------------------
        F =    -1802.3629331704648848
      muN =      -57.2928306105465595
-------------------------------------
        G =    -1745.0701025599182685

IonicMinimize: Iter:   0  G: -1745.070102559918269  |grad|_K:  5.296e-03  t[s]:  18264.77
IonicMinimize: None of the convergence criteria satisfied after 0 iterations.

#--- Lowdin population analysis ---
# oxidation-state O -0.104
# oxidation-state C +0.541
# oxidation-state Pt +0.000 +0.000 +0.001 +0.000 +0.015 +0.015 +0.015 +0.015 +0.014 +0.003 +0.014 +0.014 -0.006 -0.006 +0.007 -0.006 -0.030 -0.030 -0.030 -0.144


Dumping '111_3-Solvated.ionpos' ... done
Dumping '111_3-Solvated.n' ... done
Dumping '111_3-Solvated.eigStats' ... 
	eMin: -2.160932 at state 0 ( [ +0.000000 +0.000000 +0.000000 ] spin 0 )
	HOMO: -0.174304 at state 1 ( [ +0.000000 +0.250000 +0.000000 ] spin 0 )
	mu  : -0.173600
	LUMO: -0.173005 at state 0 ( [ +0.000000 +0.000000 +0.000000 ] spin 0 )
	eMax: +0.386873 at state 6 ( [ +0.500000 +0.500000 +0.000000 ] spin 0 )
	HOMO-LUMO gap: +0.001299
	Optical gap  : +0.001708 at state 6 ( [ +0.500000 +0.500000 +0.000000 ] spin 0 )
Dumping '111_3-Solvated.Ecomponents' ... done
End date and time: Sat Apr 27 02:35:53 2019  (Duration: 0-5:05:00.34)
Done!
