--------------------------------------------------------------------------
Initialization of PSM library failed.

  Error: PSM is in the finalized state
--------------------------------------------------------------------------
--------------------------------------------------------------------------
The OpenFabrics (openib) BTL failed to initialize while trying to
allocate some locked memory.  This typically can indicate that the
memlock limits are set too low.  For most HPC installations, the
memlock limits should be set to "unlimited".  The failure occured
here:

  Local host:    node2011
  OMPI source:   btl_openib.c:753
  Function:      ompi_free_list_init_ex_new()
  Device:        qib0
  Memlock limit: 65536

You may need to consult with your system administrator to get this
problem fixed.  This FAQ entry on the Open MPI web site may also be
helpful:

    http://www.open-mpi.org/faq/?category=openfabrics#ib-locked-pages
--------------------------------------------------------------------------

*************** JDFTx 1.4.2 (git hash 74b6e54) ***************

Start date and time: Fri Apr 12 17:35:41 2019
Executable /home/jfm343/JDFTXDIR/build/jdftx with command-line: -i Vacuum.in
Running on hosts (process indices):  node2011.physics.cornell.edu (0)
Divided in process groups (process indices):  0 (0)
Resource initialization completed at t[s]:      0.00
Run totals: 1 processes, 12 threads, 0 GPUs


Input parsed successfully to the following command list (including defaults):

basis kpoint-dependent
coords-type Lattice
core-overlap-check vector
coulomb-interaction Slab 001
coulomb-truncation-embed 0 0 0
davidson-band-ratio 1.1
dump End State IonicPositions
dump-name 100-Vacuum.$VAR
elec-cutoff 20 100
elec-eigen-algo Davidson
elec-ex-corr gga-PBEsol
elec-smearing Fermi 0.01
electronic-minimize  \
	dirUpdateScheme      FletcherReeves \
	linminMethod         DirUpdateRecommended \
	nIterations          100 \
	history              15 \
	knormThreshold       0 \
	energyDiffThreshold  1e-08 \
	nEnergyDiff          2 \
	alphaTstart          1 \
	alphaTmin            1e-10 \
	updateTestStepSize   yes \
	alphaTreduceFactor   0.1 \
	alphaTincreaseFactor 3 \
	nAlphaAdjustMax      3 \
	wolfeEnergy          0.0001 \
	wolfeGradient        0.9 \
	fdTest               no
electronic-scf  \
	nIterations	50 \
	energyDiffThreshold	1e-08 \
	residualThreshold	1e-07 \
	mixFraction	0.5 \
	qMetric	0.8 \
	history	10 \
	nEigSteps	2 \
	eigDiffThreshold	1e-08 \
	mixedVariable	Density \
	qKerker	0.8 \
	qKappa	-1 \
	verbose	no \
	mixFractionMag	1.5
exchange-regularization WignerSeitzTruncated
fluid None
fluid-ex-corr lda-TF lda-PZ
fluid-gummel-loop 10 1.000000e-05
fluid-minimize  \
	dirUpdateScheme      PolakRibiere \
	linminMethod         DirUpdateRecommended \
	nIterations          100 \
	history              15 \
	knormThreshold       0 \
	energyDiffThreshold  0 \
	nEnergyDiff          2 \
	alphaTstart          1 \
	alphaTmin            1e-10 \
	updateTestStepSize   yes \
	alphaTreduceFactor   0.1 \
	alphaTincreaseFactor 3 \
	nAlphaAdjustMax      3 \
	wolfeEnergy          0.0001 \
	wolfeGradient        0.9 \
	fdTest               no
fluid-solvent H2O 55.338 ScalarEOS \
	epsBulk 78.4 \
	pMol 0.92466 \
	epsInf 1.77 \
	Pvap 1.06736e-10 \
	sigmaBulk 4.62e-05 \
	Rvdw 2.61727 \
	Res 1.42 \
	tauNuc 343133 \
	omegaEl 0.55124 \
	gammaEl 0.257245
forces-output-coords Positions
ion Pt   0.000000000000000   0.000000000000000  -0.166700000000000 1
ion Pt   0.500000000000000   0.500000000000000  -0.166700000000000 1
ion Pt   0.000000000000000   0.500000000000000  -0.166700000000000 1
ion Pt   0.500000000000000   0.000000000000000  -0.166700000000000 1
ion Pt   0.750000000000000   0.250000000000000  -0.083300000000000 1
ion Pt   0.250000000000000   0.750000000000000  -0.083300000000000 1
ion Pt   0.250000000000000   0.250000000000000  -0.083300000000000 1
ion Pt   0.750000000000000   0.750000000000000  -0.083300000000000 1
ion Pt   0.500000000000000   0.000000000000000   0.000000000000000 1
ion Pt   0.000000000000000   0.000000000000000   0.000000000000000 1
ion Pt   0.000000000000000   0.500000000000000   0.000000000000000 1
ion Pt   0.500000000000000   0.500000000000000   0.000000000000000 1
ion Pt   0.750000000000000   0.250000000000000   0.083300000000000 1
ion Pt   0.250000000000000   0.750000000000000   0.083300000000000 1
ion Pt   0.250000000000000   0.250000000000000   0.083300000000000 1
ion Pt   0.750000000000000   0.750000000000000   0.083300000000000 1
ion Pt   0.000000000000000   0.000000000000000   0.166700000000000 1
ion Pt   0.000000000000000   0.500000000000000   0.166700000000000 1
ion Pt   0.500000000000000   0.000000000000000   0.166700000000000 1
ion Pt   0.500000000000000   0.500000000000000   0.166700000000000 1
ion-species GBRV/$ID_pbesol.uspp
ion-width 0
ionic-minimize  \
	dirUpdateScheme      L-BFGS \
	linminMethod         DirUpdateRecommended \
	nIterations          0 \
	history              15 \
	knormThreshold       0.0001 \
	energyDiffThreshold  1e-06 \
	nEnergyDiff          2 \
	alphaTstart          1 \
	alphaTmin            1e-10 \
	updateTestStepSize   yes \
	alphaTreduceFactor   0.1 \
	alphaTincreaseFactor 3 \
	nAlphaAdjustMax      3 \
	wolfeEnergy          0.0001 \
	wolfeGradient        0.9 \
	fdTest               no
kpoint   0.000000000000   0.000000000000   0.000000000000  1.00000000000000
kpoint-folding 6 6 1 
latt-move-scale 1 1 1
latt-scale 1 1 1 
lattice Tetragonal 10.4793 44.446
lattice-minimize  \
	dirUpdateScheme      L-BFGS \
	linminMethod         DirUpdateRecommended \
	nIterations          0 \
	history              15 \
	knormThreshold       0 \
	energyDiffThreshold  1e-06 \
	nEnergyDiff          2 \
	alphaTstart          1 \
	alphaTmin            1e-10 \
	updateTestStepSize   yes \
	alphaTreduceFactor   0.1 \
	alphaTincreaseFactor 3 \
	nAlphaAdjustMax      3 \
	wolfeEnergy          0.0001 \
	wolfeGradient        0.9 \
	fdTest               no
lcao-params -1 1e-06 0.01
pcm-variant GLSSA13
spintype no-spin
subspace-rotation-factor 1 yes
symmetries automatic
symmetry-threshold 0.0001



---------- Setting up symmetries ----------

Found 16 point-group symmetries of the bravais lattice
Found 64 space-group symmetries with basis
Applied RMS atom displacement 0 bohrs to make symmetries exact.

---------- Initializing the Grid ----------
R = 
[    10.4793          0          0  ]
[          0    10.4793          0  ]
[          0          0     44.446  ]
unit cell volume = 4880.87
G =
[   0.599581          0          0  ]
[          0   0.599581          0  ]
[          0          0   0.141367  ]
Minimum fftbox size, Smin = [  48  48  204  ]
Chosen fftbox size, S = [  48  48  210  ]

---------- Initializing tighter grid for wavefunction operations ----------
R = 
[    10.4793          0          0  ]
[          0    10.4793          0  ]
[          0          0     44.446  ]
unit cell volume = 4880.87
G =
[   0.599581          0          0  ]
[          0   0.599581          0  ]
[          0          0   0.141367  ]
Minimum fftbox size, Smin = [  44  44  180  ]
Chosen fftbox size, S = [  48  48  180  ]

---------- Exchange Correlation functional ----------
Initalized PBEsol GGA exchange.
Initalized PBEsol GGA correlation.

---------- Setting up pseudopotentials ----------
Width of ionic core gaussian charges (only for fluid interactions / plotting) set to 0

Reading pseudopotential file '/home/jfm343/JDFTXDIR/build/pseudopotentials/GBRV/pt_pbesol.uspp':
  Title: Pt.  Created by USPP 7.3.6 on 22-9-15
  Reference state energy: -104.899005.  16 valence electrons in orbitals:
    |510>  occupation: 6  eigenvalue: -2.158847
    |520>  occupation: 9.5  eigenvalue: -0.336311
    |600>  occupation: 0  eigenvalue: -0.320324
    |610>  occupation: 0  eigenvalue: -0.119800
  lMax: 2  lLocal: 3  QijEcut: 5.5
  6 projectors sampled on a log grid with 745 points:
    l: 0  eig: -0.320324  rCut: 2.45
    l: 0  eig: 1.500000  rCut: 2.45
    l: 1  eig: -2.158847  rCut: 1.6
    l: 1  eig: -0.119800  rCut: 1.6
    l: 2  eig: -0.500000  rCut: 1.6
    l: 2  eig: -0.336311  rCut: 1.6
  Partial core density with radius 1.1
  Transforming core density to a uniform radial grid of dG=0.02 with 1265 points.
  Transforming local potential to a uniform radial grid of dG=0.02 with 1265 points.
  Transforming nonlocal projectors to a uniform radial grid of dG=0.02 with 432 points.
  Transforming density augmentations to a uniform radial grid of dG=0.02 with 1265 points.
  Transforming atomic orbitals to a uniform radial grid of dG=0.02 with 432 points.
  Core radius for overlap checks: 2.45 bohrs.

Initialized 1 species with 20 total atoms.

Folded 1 k-points by 6x6x1 to 36 k-points.

---------- Setting up k-points, bands, fillings ----------
Reduced to 10 k-points under symmetry. 
Computing the number of bands and number of electrons
Calculating initial fillings.
nElectrons: 320.000000   nBands: 240   nStates: 10

----- Setting up reduced wavefunction bases (one per k-point) -----
average nbasis = 20857.028 , ideal nbasis = 20851.448

---------- Setting up coulomb interaction ----------
Setting up double-sized grid for truncated Coulomb potentials:
R = 
[    10.4793          0          0  ]
[          0    10.4793          0  ]
[          0          0     88.892  ]
unit cell volume = 9761.74
G =
[   0.599581          0          0  ]
[          0   0.599581          0  ]
[          0          0  0.0706834  ]
Chosen fftbox size, S = [  48  48  420  ]
Integer grid location selected as the embedding center:
   Grid: [  0  0  0  ]
   Lattice: [  0  0  0  ]
   Cartesian: [  0  0  0  ]
Constructing Wigner-Seitz cell: 6 faces (6 quadrilaterals, 0 hexagons)
Range-separation parameter for embedded mesh potentials due to point charges: 0.589462 bohrs.
Initialized slab truncation along lattice direction 001

---------- Setting up 2D ewald sum ----------
Optimum gaussian width for ewald sums = 6.251509 bohr.
Real space sums over 225 unit cells with max indices [  7  7  0  ]
Reciprocal space sums over 81 terms with max indices [  4  4  0  ]

---------- Allocating electronic variables ----------
Initializing wave functions:  linear combination of atomic orbitals
Pt pseudo-atom occupations:   s ( 0 )  p ( 6 0 )  d ( 10 )
	FillingsUpdate:  mu: -1.649336598  nElectrons: 320.000000
LCAOMinimize: Iter:   0  F: -1772.1148205095469166  |grad|_K:  2.438e-02  alpha:  1.000e+00
LCAOMinimize: 	Step increased F by 5.370037e+01, reducing alpha to 1.801931e-02.
	FillingsUpdate:  mu: -1.092693889  nElectrons: 320.000000
LCAOMinimize: Iter:   1  F: -1776.9691257290244266  |grad|_K:  1.192e-02  alpha:  1.802e-02  linmin: -3.138e-01  cgtest:  9.044e-01  t[s]:   1186.53
LCAOMinimize: Encountered beta<0, resetting CG.
	FillingsUpdate:  mu: -0.509951966  nElectrons: 320.000000
LCAOMinimize: Iter:   2  F: -1778.4123979520979901  |grad|_K:  5.500e-03  alpha:  3.629e-02  linmin:  4.704e-02  cgtest: -1.215e-01  t[s]:   1487.47
LCAOMinimize: 	Predicted alpha/alphaT>3.000000, increasing alphaT to 1.088622e-01.
	FillingsUpdate:  mu: -0.173368107  nElectrons: 320.000000
LCAOMinimize: Iter:   3  F: -1779.7733715711640343  |grad|_K:  2.389e-03  alpha:  1.694e-01  linmin:  2.925e-03  cgtest:  1.886e-01  t[s]:   1865.31
	FillingsUpdate:  mu: -0.292840472  nElectrons: 320.000000
LCAOMinimize: Iter:   4  F: -1780.0220980065976164  |grad|_K:  2.319e-03  alpha:  1.499e-01  linmin:  2.239e-03  cgtest: -2.835e-02  t[s]:   2167.09
	FillingsUpdate:  mu: -0.203249847  nElectrons: 320.000000
LCAOMinimize: Iter:   5  F: -1780.0928399260028527  |grad|_K:  1.255e-03  alpha:  5.467e-02  linmin:  4.276e-02  cgtest: -2.263e-01  t[s]:   2468.61
LCAOMinimize: 	Predicted alpha/alphaT>3.000000, increasing alphaT to 1.640048e-01.
	FillingsUpdate:  mu: -0.172851867  nElectrons: 320.000000
LCAOMinimize: Iter:   6  F: -1780.1961608469766816  |grad|_K:  8.550e-04  alpha:  2.751e-01  linmin:  3.607e-03  cgtest:  7.276e-01  t[s]:   2845.25
LCAOMinimize: Encountered beta<0, resetting CG.
	FillingsUpdate:  mu: -0.215436156  nElectrons: 320.000000
LCAOMinimize: Iter:   7  F: -1780.2050785448964234  |grad|_K:  3.976e-04  alpha:  3.832e-02  linmin: -6.010e-02  cgtest:  1.789e-01  t[s]:   3146.57
LCAOMinimize: 	Predicted alpha/alphaT>3.000000, increasing alphaT to 1.149546e-01.
	FillingsUpdate:  mu: -0.208898533  nElectrons: 320.000000
LCAOMinimize: Iter:   8  F: -1780.2114601569298884  |grad|_K:  1.799e-04  alpha:  1.318e-01  linmin: -2.194e-03  cgtest: -1.379e-01  t[s]:   3523.40
	FillingsUpdate:  mu: -0.226624481  nElectrons: 320.000000
LCAOMinimize: Iter:   9  F: -1780.2123161472375159  |grad|_K:  1.893e-04  alpha:  9.022e-02  linmin:  9.352e-05  cgtest:  8.726e-03  t[s]:   3825.06
	FillingsUpdate:  mu: -0.231532314  nElectrons: 320.000000
LCAOMinimize: Iter:  10  F: -1780.2131921311317910  |grad|_K:  3.852e-05  alpha:  8.417e-02  linmin:  3.846e-03  cgtest:  1.270e-01  t[s]:   4126.36
	FillingsUpdate:  mu: -0.233794667  nElectrons: 320.000000
LCAOMinimize: Iter:  11  F: -1780.2132477004481643  |grad|_K:  3.205e-05  alpha:  1.292e-01  linmin:  3.442e-04  cgtest:  7.371e-04  t[s]:   4428.09
	FillingsUpdate:  mu: -0.232208329  nElectrons: 320.000000
LCAOMinimize: Iter:  12  F: -1780.2132633136752702  |grad|_K:  2.002e-05  alpha:  5.247e-02  linmin:  2.597e-04  cgtest: -5.969e-04  t[s]:   4729.65
LCAOMinimize: 	Predicted alpha/alphaT>3.000000, increasing alphaT to 1.574058e-01.
	FillingsUpdate:  mu: -0.231282611  nElectrons: 320.000000
LCAOMinimize: Iter:  13  F: -1780.2132954528628943  |grad|_K:  6.318e-06  alpha:  2.762e-01  linmin: -3.771e-04  cgtest:  5.664e-03  t[s]:   5106.31
	FillingsUpdate:  mu: -0.231026968  nElectrons: 320.000000
LCAOMinimize: Iter:  14  F: -1780.2132973366569786  |grad|_K:  9.079e-06  alpha:  1.624e-01  linmin: -3.430e-06  cgtest: -6.225e-04  t[s]:   5407.93
	FillingsUpdate:  mu: -0.231683719  nElectrons: 320.000000
LCAOMinimize: Iter:  15  F: -1780.2132988938928975  |grad|_K:  3.654e-06  alpha:  6.495e-02  linmin: -2.654e-04  cgtest:  4.017e-03  t[s]:   5709.58
	FillingsUpdate:  mu: -0.231906672  nElectrons: 320.000000
LCAOMinimize: Iter:  16  F: -1780.2132994939211130  |grad|_K:  1.137e-06  alpha:  1.554e-01  linmin:  3.581e-03  cgtest: -1.809e-02  t[s]:   6010.67
	FillingsUpdate:  mu: -0.232004706  nElectrons: 320.000000
LCAOMinimize: Iter:  17  F: -1780.2132995738077170  |grad|_K:  2.253e-06  alpha:  2.128e-01  linmin: -6.941e-04  cgtest:  7.691e-03  t[s]:   6312.01
LCAOMinimize: Converged (|Delta F|<1.000000e-06 for 2 iters).


---- Citations for features of the code used in this run ----

   Software package:
      R. Sundararaman, K. Letchworth-Weaver, K.A. Schwarz, D. Gunceler, Y. Ozhabes and T.A. Arias, 'JDFTx: software for joint density-functional theory', SoftwareX 6, 278 (2017)

   gga-PBEsol exchange-correlation functional:
      J.P. Perdew et al., Phys. Rev. Lett. 100, 136406 (2008)

   Pseudopotentials:
      KF Garrity, JW Bennett, KM Rabe and D Vanderbilt, Comput. Mater. Sci. 81, 446 (2014)

   Truncated Coulomb potentials:
      R. Sundararaman and T.A. Arias, Phys. Rev. B 87, 165122 (2013)

This list may not be complete. Please suggest additional citations or
report any other bugs at https://github.com/shankar1729/jdftx/issues

Initialization completed successfully at t[s]:   6531.07

	FillingsUpdate:  mu: -0.232004706  nElectrons: 320.000000

-------- Electronic minimization -----------
Will mix electronic density at each iteration.
	FillingsUpdate:  mu: -0.232004706  nElectrons: 320.000000
