--------------------------------------------------------------------------
Initialization of PSM library failed.

  Error: PSM is in the finalized state
--------------------------------------------------------------------------
[node2018][[62570,1],0][btl_openib.c:880:mca_btl_openib_add_procs] could not prepare openib device for use
--------------------------------------------------------------------------
The OpenFabrics (openib) BTL failed to initialize while trying to
allocate some locked memory.  This typically can indicate that the
memlock limits are set too low.  For most HPC installations, the
memlock limits should be set to "unlimited".  The failure occured
here:

  Local host:    node2018
  OMPI source:   btl_openib.c:753
  Function:      ompi_free_list_init_ex_new()
  Device:        qib0
  Memlock limit: 65536

You may need to consult with your system administrator to get this
problem fixed.  This FAQ entry on the Open MPI web site may also be
helpful:

    http://www.open-mpi.org/faq/?category=openfabrics#ib-locked-pages
--------------------------------------------------------------------------

*************** JDFTx 1.4.2 (git hash 74b6e54) ***************

Start date and time: Thu May 30 13:56:17 2019
Executable /home/jfm343/JDFTXDIR/build/jdftx with command-line: -i Vacuum.in
Running on hosts (process indices):  node2018.physics.cornell.edu (0)
Divided in process groups (process indices):  0 (0)
Resource initialization completed at t[s]:      0.00
Run totals: 1 processes, 12 threads, 0 GPUs


Input parsed successfully to the following command list (including defaults):

basis kpoint-dependent
coords-type Lattice
core-overlap-check vector
coulomb-interaction Periodic
davidson-band-ratio 1.1
dump End State IonicPositions ElecDensity EigStats Ecomponents
dump-name 100_1-Vacuum.$VAR
elec-cutoff 20 100
elec-eigen-algo Davidson
elec-ex-corr gga-PBEsol
elec-smearing Fermi 0.01
electronic-minimize  \
	dirUpdateScheme      FletcherReeves \
	linminMethod         DirUpdateRecommended \
	nIterations          200 \
	history              15 \
	knormThreshold       0 \
	energyDiffThreshold  1e-08 \
	nEnergyDiff          2 \
	alphaTstart          1 \
	alphaTmin            1e-10 \
	updateTestStepSize   yes \
	alphaTreduceFactor   0.1 \
	alphaTincreaseFactor 3 \
	nAlphaAdjustMax      3 \
	wolfeEnergy          0.0001 \
	wolfeGradient        0.9 \
	fdTest               no
exchange-regularization WignerSeitzTruncated
fluid None
fluid-ex-corr lda-TF lda-PZ
fluid-gummel-loop 10 1.000000e-05
fluid-minimize  \
	dirUpdateScheme      PolakRibiere \
	linminMethod         DirUpdateRecommended \
	nIterations          100 \
	history              15 \
	knormThreshold       0 \
	energyDiffThreshold  0 \
	nEnergyDiff          2 \
	alphaTstart          1 \
	alphaTmin            1e-10 \
	updateTestStepSize   yes \
	alphaTreduceFactor   0.1 \
	alphaTincreaseFactor 3 \
	nAlphaAdjustMax      3 \
	wolfeEnergy          0.0001 \
	wolfeGradient        0.9 \
	fdTest               no
fluid-solvent H2O 55.338 ScalarEOS \
	epsBulk 78.4 \
	pMol 0.92466 \
	epsInf 1.77 \
	Pvap 1.06736e-10 \
	sigmaBulk 4.62e-05 \
	Rvdw 2.61727 \
	Res 1.42 \
	tauNuc 343133 \
	omegaEl 0.55124 \
	gammaEl 0.257245
forces-output-coords Positions
ion O   0.679200000000000   0.479570000000000   0.326720000000000 1
ion O   0.426160000000000   0.724070000000000   0.326730000000000 1
ion C   0.500000000000000   0.500000000000000   0.297170000000000 1
ion H   0.419980000000000   0.345350000000000   0.319120000000000 1
ion H   0.724710000000000   0.323450000000000   0.305020000000000 1
ion H   0.303290000000000   0.730660000000000   0.305020000000000 1
ion Pt   0.000000000000000   0.000000000000000  -0.166660000000000 0
ion Pt   0.000000000000000   0.500000000000000  -0.166660000000000 0
ion Pt   0.500000000000000   0.000000000000000  -0.166660000000000 0
ion Pt   0.500000000000000   0.500000000000000  -0.166660000000000 0
ion Pt   0.250000000000000   0.250000000000000  -0.083330000000000 0
ion Pt   0.250000000000000   0.750000000000000  -0.083330000000000 0
ion Pt   0.750000000000000   0.250000000000000  -0.083330000000000 0
ion Pt   0.750000000000000   0.750000000000000  -0.083330000000000 0
ion Pt   0.000000000000000   0.000000000000000   0.000000000000000 1
ion Pt   0.000000000000000   0.500000000000000   0.000000000000000 1
ion Pt   0.500000000000000   0.000000000000000   0.000000000000000 1
ion Pt   0.500000000000000   0.500000000000000   0.000000000000000 1
ion Pt   0.250000000000000   0.250000000000000   0.083330000000000 1
ion Pt   0.250000000000000   0.750000000000000   0.083330000000000 1
ion Pt   0.750000000000000   0.250000000000000   0.083330000000000 1
ion Pt   0.750000000000000   0.750000000000000   0.083330000000000 1
ion Pt   0.000000000000000   0.000000000000000   0.166660000000000 1
ion Pt   0.000000000000000   0.500000000000000   0.166660000000000 1
ion Pt   0.500000000000000   0.000000000000000   0.166660000000000 1
ion Pt   0.500000000000000   0.500000000000000   0.166660000000000 1
ion-species GBRV/$ID_pbesol.uspp
ion-width 0
ionic-minimize  \
	dirUpdateScheme      L-BFGS \
	linminMethod         DirUpdateRecommended \
	nIterations          8 \
	history              15 \
	knormThreshold       0.0001 \
	energyDiffThreshold  1e-06 \
	nEnergyDiff          2 \
	alphaTstart          1 \
	alphaTmin            1e-10 \
	updateTestStepSize   yes \
	alphaTreduceFactor   0.1 \
	alphaTincreaseFactor 3 \
	nAlphaAdjustMax      3 \
	wolfeEnergy          0.0001 \
	wolfeGradient        0.9 \
	fdTest               no
kpoint   0.000000000000   0.000000000000   0.000000000000  1.00000000000000
kpoint-folding 4 4 1 
latt-move-scale 1 1 1
latt-scale 1 1 1 
lattice Triclinic 14.049 10.2809 30.8427 90 90 90
lattice-minimize  \
	dirUpdateScheme      L-BFGS \
	linminMethod         DirUpdateRecommended \
	nIterations          0 \
	history              15 \
	knormThreshold       0 \
	energyDiffThreshold  1e-06 \
	nEnergyDiff          2 \
	alphaTstart          1 \
	alphaTmin            1e-10 \
	updateTestStepSize   yes \
	alphaTreduceFactor   0.1 \
	alphaTincreaseFactor 3 \
	nAlphaAdjustMax      3 \
	wolfeEnergy          0.0001 \
	wolfeGradient        0.9 \
	fdTest               no
lcao-params -1 1e-06 0.01
pcm-variant GLSSA13
spintype no-spin
subspace-rotation-factor 1 yes
symmetries automatic
symmetry-threshold 0.0001



---------- Setting up symmetries ----------

Found 8 point-group symmetries of the bravais lattice
Found 1 space-group symmetries with basis
Applied RMS atom displacement 0 bohrs to make symmetries exact.

---------- Initializing the Grid ----------
R = 
[     14.049          0          0  ]
[          0    10.2809          0  ]
[          0          0    30.8427  ]
unit cell volume = 4454.8
G =
[   0.447233          0          0  ]
[          0   0.611152          0  ]
[          0          0   0.203717  ]
Minimum fftbox size, Smin = [  64  48  140  ]
Chosen fftbox size, S = [  64  48  140  ]

---------- Initializing tighter grid for wavefunction operations ----------
R = 
[     14.049          0          0  ]
[          0    10.2809          0  ]
[          0          0    30.8427  ]
unit cell volume = 4454.8
G =
[   0.447233          0          0  ]
[          0   0.611152          0  ]
[          0          0   0.203717  ]
Minimum fftbox size, Smin = [  60  44  128  ]
Chosen fftbox size, S = [  60  48  128  ]

---------- Exchange Correlation functional ----------
Initalized PBEsol GGA exchange.
Initalized PBEsol GGA correlation.

---------- Setting up pseudopotentials ----------
Width of ionic core gaussian charges (only for fluid interactions / plotting) set to 0

Reading pseudopotential file '/home/jfm343/JDFTXDIR/build/pseudopotentials/GBRV/o_pbesol.uspp':
  Title: O.  Created by USPP 7.3.6 on 3-2-2014
  Reference state energy: -15.849885.  6 valence electrons in orbitals:
    |200>  occupation: 2  eigenvalue: -0.873214
    |210>  occupation: 4  eigenvalue: -0.330058
  lMax: 2  lLocal: 2  QijEcut: 6
  5 projectors sampled on a log grid with 511 points:
    l: 0  eig: -0.873214  rCut: 1.25
    l: 0  eig: 0.000000  rCut: 1.25
    l: 1  eig: -0.330058  rCut: 1.25
    l: 1  eig: 0.000000  rCut: 1.25
    l: 2  eig: 1.000000  rCut: 1.25
  Partial core density with radius 0.7
  Transforming core density to a uniform radial grid of dG=0.02 with 1254 points.
  Transforming local potential to a uniform radial grid of dG=0.02 with 1254 points.
  Transforming nonlocal projectors to a uniform radial grid of dG=0.02 with 432 points.
  Transforming density augmentations to a uniform radial grid of dG=0.02 with 1254 points.
  Transforming atomic orbitals to a uniform radial grid of dG=0.02 with 432 points.
  Core radius for overlap checks: 1.25 bohrs.

Reading pseudopotential file '/home/jfm343/JDFTXDIR/build/pseudopotentials/GBRV/c_pbesol.uspp':
  Title: C.  Created by USPP 7.3.6 on 3-2-2014
  Reference state energy: -5.383511.  4 valence electrons in orbitals:
    |200>  occupation: 2  eigenvalue: -0.501126
    |210>  occupation: 2  eigenvalue: -0.192448
  lMax: 1  lLocal: 2  QijEcut: 5
  4 projectors sampled on a log grid with 503 points:
    l: 0  eig: -0.501126  rCut: 1.3
    l: 0  eig: 0.000000  rCut: 1.3
    l: 1  eig: -0.192448  rCut: 1.3
    l: 1  eig: 0.000000  rCut: 1.3
  Partial core density with radius 1.1
  Transforming core density to a uniform radial grid of dG=0.02 with 1254 points.
  Transforming local potential to a uniform radial grid of dG=0.02 with 1254 points.
  Transforming nonlocal projectors to a uniform radial grid of dG=0.02 with 432 points.
  Transforming density augmentations to a uniform radial grid of dG=0.02 with 1254 points.
  Transforming atomic orbitals to a uniform radial grid of dG=0.02 with 432 points.
  Core radius for overlap checks: 1.30 bohrs.

Reading pseudopotential file '/home/jfm343/JDFTXDIR/build/pseudopotentials/GBRV/h_pbesol.uspp':
  Title: H.  Created by USPP 7.3.6 on 22-9-15
  Reference state energy: -0.449841.  1 valence electrons in orbitals:
    |100>  occupation: 1  eigenvalue: -0.232690
  lMax: 0  lLocal: 1  QijEcut: 6
  2 projectors sampled on a log grid with 395 points:
    l: 0  eig: -0.232690  rCut: 1.2
    l: 0  eig: 1.000000  rCut: 1.2
  Transforming local potential to a uniform radial grid of dG=0.02 with 1254 points.
  Transforming nonlocal projectors to a uniform radial grid of dG=0.02 with 432 points.
  Transforming density augmentations to a uniform radial grid of dG=0.02 with 1254 points.
  Transforming atomic orbitals to a uniform radial grid of dG=0.02 with 432 points.
  Core radius for overlap checks: 1.20 bohrs.

Reading pseudopotential file '/home/jfm343/JDFTXDIR/build/pseudopotentials/GBRV/pt_pbesol.uspp':
  Title: Pt.  Created by USPP 7.3.6 on 22-9-15
  Reference state energy: -104.899005.  16 valence electrons in orbitals:
    |510>  occupation: 6  eigenvalue: -2.158847
    |520>  occupation: 9.5  eigenvalue: -0.336311
    |600>  occupation: 0  eigenvalue: -0.320324
    |610>  occupation: 0  eigenvalue: -0.119800
  lMax: 2  lLocal: 3  QijEcut: 5.5
  6 projectors sampled on a log grid with 745 points:
    l: 0  eig: -0.320324  rCut: 2.45
    l: 0  eig: 1.500000  rCut: 2.45
    l: 1  eig: -2.158847  rCut: 1.6
    l: 1  eig: -0.119800  rCut: 1.6
    l: 2  eig: -0.500000  rCut: 1.6
    l: 2  eig: -0.336311  rCut: 1.6
  Partial core density with radius 1.1
  Transforming core density to a uniform radial grid of dG=0.02 with 1254 points.
  Transforming local potential to a uniform radial grid of dG=0.02 with 1254 points.
  Transforming nonlocal projectors to a uniform radial grid of dG=0.02 with 432 points.
  Transforming density augmentations to a uniform radial grid of dG=0.02 with 1254 points.
  Transforming atomic orbitals to a uniform radial grid of dG=0.02 with 432 points.
  Core radius for overlap checks: 2.45 bohrs.

Initialized 4 species with 26 total atoms.

Folded 1 k-points by 4x4x1 to 16 k-points.

---------- Setting up k-points, bands, fillings ----------
Adding inversion symmetry to k-mesh for non-inversion-symmetric unit cell.
Reduced to 10 k-points under symmetry. 
Computing the number of bands and number of electrons
Calculating initial fillings.
nElectrons: 339.000000   nBands: 255   nStates: 10

----- Setting up reduced wavefunction bases (one per k-point) -----
average nbasis = 19035.062 , ideal nbasis = 19031.242

---------- Setting up ewald sum ----------
Optimum gaussian width for ewald sums = 3.813794 bohr.
Real space sum over 693 unit cells with max indices [  4  5  3  ]
Reciprocal space sum over 5655 terms with max indices [  7  6  14  ]

---------- Allocating electronic variables ----------
Initializing wave functions:  linear combination of atomic orbitals
O pseudo-atom occupations:   s ( 2 )  p ( 4 )
C pseudo-atom occupations:   s ( 2 )  p ( 2 )
H pseudo-atom occupations:   s ( 1 )
Pt pseudo-atom occupations:   s ( 0 )  p ( 6 0 )  d ( 10 )
	FillingsUpdate:  mu: -0.268848764  nElectrons: 339.000000
LCAOMinimize: Iter:   0  F: -1808.2904201671524334  |grad|_K:  2.236e-02  alpha:  1.000e+00
LCAOMinimize: 	Step increased F by 3.193964e+01, reducing alpha to 2.250932e-02.
	FillingsUpdate:  mu: -0.150461855  nElectrons: 339.000000
LCAOMinimize: Iter:   1  F: -1813.9477400846672026  |grad|_K:  1.336e-02  alpha:  2.251e-02  linmin: -3.004e-01  cgtest:  1.044e+00  t[s]:    426.12
LCAOMinimize: Encountered beta<0, resetting CG.
	FillingsUpdate:  mu: +0.158066665  nElectrons: 339.000000
LCAOMinimize: Iter:   2  F: -1817.5750922925944906  |grad|_K:  4.903e-03  alpha:  6.097e-02  linmin: -2.874e-02  cgtest:  1.873e-01  t[s]:    533.95
	FillingsUpdate:  mu: +0.268183512  nElectrons: 339.000000
LCAOMinimize: Iter:   3  F: -1818.3630778653728157  |grad|_K:  6.872e-03  alpha:  9.434e-02  linmin: -1.394e-02  cgtest:  1.662e-02  t[s]:    636.95
	FillingsUpdate:  mu: +0.234901259  nElectrons: 339.000000
LCAOMinimize: Iter:   4  F: -1819.0121811854498901  |grad|_K:  1.823e-03  alpha:  3.643e-02  linmin: -6.110e-02  cgtest: -1.858e-01  t[s]:    740.34
	FillingsUpdate:  mu: +0.313571640  nElectrons: 339.000000
LCAOMinimize: Iter:   5  F: -1819.1145107614738663  |grad|_K:  1.527e-03  alpha:  8.726e-02  linmin:  4.675e-02  cgtest: -1.252e-01  t[s]:    843.58
	FillingsUpdate:  mu: +0.337929216  nElectrons: 339.000000
LCAOMinimize: Iter:   6  F: -1819.1451754222125601  |grad|_K:  1.659e-03  alpha:  5.495e-02  linmin:  1.917e-04  cgtest:  5.013e-01  t[s]:    948.72
	FillingsUpdate:  mu: +0.304580456  nElectrons: 339.000000
LCAOMinimize: Iter:   7  F: -1819.2373245494311504  |grad|_K:  1.282e-03  alpha:  1.018e-01  linmin: -1.956e-03  cgtest: -1.659e-01  t[s]:   1050.66
	FillingsUpdate:  mu: +0.292266200  nElectrons: 339.000000
LCAOMinimize: Iter:   8  F: -1819.2609592274516217  |grad|_K:  9.864e-04  alpha:  4.383e-02  linmin:  1.085e-03  cgtest: -5.314e-02  t[s]:   1155.12
	FillingsUpdate:  mu: +0.289132618  nElectrons: 339.000000
LCAOMinimize: Iter:   9  F: -1819.2862026881596194  |grad|_K:  3.487e-04  alpha:  8.157e-02  linmin:  2.083e-02  cgtest: -2.284e-01  t[s]:   1257.38
	FillingsUpdate:  mu: +0.286714188  nElectrons: 339.000000
LCAOMinimize: Iter:  10  F: -1819.2894779493021815  |grad|_K:  3.816e-04  alpha:  8.921e-02  linmin: -7.593e-04  cgtest:  7.562e-02  t[s]:   1359.09
	FillingsUpdate:  mu: +0.283653244  nElectrons: 339.000000
LCAOMinimize: Iter:  11  F: -1819.2913097319451481  |grad|_K:  1.795e-04  alpha:  3.807e-02  linmin: -8.398e-04  cgtest: -7.681e-02  t[s]:   1464.18
	FillingsUpdate:  mu: +0.281755393  nElectrons: 339.000000
LCAOMinimize: Iter:  12  F: -1819.2923043874779978  |grad|_K:  1.603e-04  alpha:  9.405e-02  linmin:  3.570e-04  cgtest:  2.208e-03  t[s]:   1568.64
	FillingsUpdate:  mu: +0.282595254  nElectrons: 339.000000
LCAOMinimize: Iter:  13  F: -1819.2927192939941961  |grad|_K:  1.220e-04  alpha:  4.910e-02  linmin: -5.013e-04  cgtest:  2.110e-02  t[s]:   1672.99
	FillingsUpdate:  mu: +0.283589799  nElectrons: 339.000000
LCAOMinimize: Iter:  14  F: -1819.2929944765073742  |grad|_K:  6.878e-05  alpha:  5.637e-02  linmin:  1.111e-03  cgtest: -9.581e-04  t[s]:   1778.11
	FillingsUpdate:  mu: +0.283231242  nElectrons: 339.000000
LCAOMinimize: Iter:  15  F: -1819.2931046433780011  |grad|_K:  6.718e-05  alpha:  7.133e-02  linmin:  3.875e-04  cgtest:  1.975e-03  t[s]:   1880.92
	FillingsUpdate:  mu: +0.282215806  nElectrons: 339.000000
LCAOMinimize: Iter:  16  F: -1819.2931735461918379  |grad|_K:  3.768e-05  alpha:  4.669e-02  linmin:  8.359e-07  cgtest:  3.700e-03  t[s]:   1985.26
	FillingsUpdate:  mu: +0.281157700  nElectrons: 339.000000
LCAOMinimize: Iter:  17  F: -1819.2932202807423891  |grad|_K:  4.487e-05  alpha:  1.005e-01  linmin: -1.775e-05  cgtest: -1.333e-03  t[s]:   2088.97
	FillingsUpdate:  mu: +0.280635225  nElectrons: 339.000000
LCAOMinimize: Iter:  18  F: -1819.2932594787168910  |grad|_K:  3.927e-05  alpha:  5.941e-02  linmin:  1.413e-06  cgtest: -1.306e-03  t[s]:   2192.27
	FillingsUpdate:  mu: +0.281081448  nElectrons: 339.000000
LCAOMinimize: Iter:  19  F: -1819.2932954921352575  |grad|_K:  2.458e-05  alpha:  7.128e-02  linmin:  1.839e-04  cgtest: -1.459e-03  t[s]:   2296.28
	FillingsUpdate:  mu: +0.281364947  nElectrons: 339.000000
LCAOMinimize: Iter:  20  F: -1819.2933063019231668  |grad|_K:  2.123e-05  alpha:  5.468e-02  linmin: -1.224e-05  cgtest:  9.222e-04  t[s]:   2399.38
	FillingsUpdate:  mu: +0.281617973  nElectrons: 339.000000
LCAOMinimize: Iter:  21  F: -1819.2933140098305103  |grad|_K:  9.583e-06  alpha:  5.219e-02  linmin:  9.713e-05  cgtest: -2.072e-03  t[s]:   2502.41
	FillingsUpdate:  mu: +0.281620267  nElectrons: 339.000000
LCAOMinimize: Iter:  22  F: -1819.2933156766864613  |grad|_K:  7.401e-06  alpha:  5.541e-02  linmin: -1.161e-04  cgtest:  9.164e-04  t[s]:   2605.28
	FillingsUpdate:  mu: +0.281663574  nElectrons: 339.000000
LCAOMinimize: Iter:  23  F: -1819.2933165599579297  |grad|_K:  5.138e-06  alpha:  4.919e-02  linmin:  1.981e-05  cgtest: -1.224e-03  t[s]:   2711.01
	FillingsUpdate:  mu: +0.281775094  nElectrons: 339.000000
LCAOMinimize: Iter:  24  F: -1819.2933172913801627  |grad|_K:  4.113e-06  alpha:  8.457e-02  linmin:  5.204e-05  cgtest:  9.546e-04  t[s]:   2813.93
LCAOMinimize: Converged (|Delta F|<1.000000e-06 for 2 iters).


---- Citations for features of the code used in this run ----

   Software package:
      R. Sundararaman, K. Letchworth-Weaver, K.A. Schwarz, D. Gunceler, Y. Ozhabes and T.A. Arias, 'JDFTx: software for joint density-functional theory', SoftwareX 6, 278 (2017)

   gga-PBEsol exchange-correlation functional:
      J.P. Perdew et al., Phys. Rev. Lett. 100, 136406 (2008)

   Pseudopotentials:
      KF Garrity, JW Bennett, KM Rabe and D Vanderbilt, Comput. Mater. Sci. 81, 446 (2014)

   Total energy minimization with Auxiliary Hamiltonian:
      C. Freysoldt, S. Boeck, and J. Neugebauer, Phys. Rev. B 79, 241103(R) (2009)

This list may not be complete. Please suggest additional citations or
report any other bugs at https://github.com/shankar1729/jdftx/issues

Initialization completed successfully at t[s]:   2898.86


-------- Electronic minimization -----------
	FillingsUpdate:  mu: +0.281775094  nElectrons: 339.000000
ElecMinimize: Iter:   0  F: -1819.293317291383801  |grad|_K:  1.457e-04  alpha:  1.000e+00
	FillingsUpdate:  mu: +0.313105343  nElectrons: 339.000000
	SubspaceRotationAdjust: set factor to 1
ElecMinimize: Iter:   1  F: -1819.760884952314655  |grad|_K:  7.503e-05  alpha:  4.554e-01  linmin:  9.773e-05  t[s]:   3509.46
	FillingsUpdate:  mu: +0.274414761  nElectrons: 339.000000
	SubspaceRotationAdjust: set factor to 0.631
ElecMinimize: Iter:   2  F: -1819.820640997870669  |grad|_K:  9.348e-05  alpha:  2.211e-01  linmin:  1.533e-05  t[s]:   3933.18
	FillingsUpdate:  mu: +0.287696047  nElectrons: 339.000000
	SubspaceRotationAdjust: set factor to 0.39
ElecMinimize: Iter:   3  F: -1819.860099740139503  |grad|_K:  6.937e-05  alpha:  8.991e-02  linmin: -1.014e-04  t[s]:   4359.06
	FillingsUpdate:  mu: +0.287936027  nElectrons: 339.000000
	SubspaceRotationAdjust: set factor to 0.218
ElecMinimize: Iter:   4  F: -1819.871665403764837  |grad|_K:  3.210e-05  alpha:  4.758e-02  linmin: -2.671e-05  t[s]:   4777.40
ElecMinimize: 	Predicted alpha/alphaT>3.000000, increasing alphaT to 1.427530e-01.
	FillingsUpdate:  mu: +0.300042962  nElectrons: 339.000000
	SubspaceRotationAdjust: set factor to 0.17
ElecMinimize: Iter:   5  F: -1819.887707139330814  |grad|_K:  2.535e-05  alpha:  3.181e-01  linmin:  4.300e-05  t[s]:   5298.81
	FillingsUpdate:  mu: +0.296189404  nElectrons: 339.000000
	SubspaceRotationAdjust: set factor to 0.129
	SubspaceRotationAdjust: resetting CG because factor has changed by 0.129144
ElecMinimize: 	State modified externally: resetting search direction.
ElecMinimize: Iter:   6  F: -1819.891940638556889  |grad|_K:  1.628e-05  alpha:  1.371e-01
	FillingsUpdate:  mu: +0.293165190  nElectrons: 339.000000
	SubspaceRotationAdjust: set factor to 0.114
ElecMinimize: Iter:   7  F: -1819.895223968588652  |grad|_K:  9.995e-06  alpha:  2.533e-01  linmin: -6.154e-05  t[s]:   6300.62
	FillingsUpdate:  mu: +0.290468505  nElectrons: 339.000000
	SubspaceRotationAdjust: set factor to 0.088
ElecMinimize: Iter:   8  F: -1819.896802987756246  |grad|_K:  7.339e-06  alpha:  3.231e-01  linmin: -1.225e-05  t[s]:   6720.83
	FillingsUpdate:  mu: +0.290967958  nElectrons: 339.000000
	SubspaceRotationAdjust: set factor to 0.112
ElecMinimize: Iter:   9  F: -1819.898111848027156  |grad|_K:  5.180e-06  alpha:  4.978e-01  linmin:  2.853e-05  t[s]:   7138.85
	FillingsUpdate:  mu: +0.291413517  nElectrons: 339.000000
	SubspaceRotationAdjust: set factor to 0.136
ElecMinimize: Iter:  10  F: -1819.898824187552691  |grad|_K:  4.286e-06  alpha:  5.457e-01  linmin:  2.717e-05  t[s]:   7558.08
	FillingsUpdate:  mu: +0.291650534  nElectrons: 339.000000
	SubspaceRotationAdjust: set factor to 0.111
ElecMinimize: Iter:  11  F: -1819.899315734581251  |grad|_K:  5.457e-06  alpha:  5.501e-01  linmin:  1.701e-05  t[s]:   7980.38
	FillingsUpdate:  mu: +0.291967168  nElectrons: 339.000000
	SubspaceRotationAdjust: set factor to 0.102
ElecMinimize: Iter:  12  F: -1819.899830303732642  |grad|_K:  4.109e-06  alpha:  3.534e-01  linmin:  5.648e-06  t[s]:   8402.10
	FillingsUpdate:  mu: +0.292198758  nElectrons: 339.000000
	SubspaceRotationAdjust: set factor to 0.118
ElecMinimize: Iter:  13  F: -1819.900478829650410  |grad|_K:  4.303e-06  alpha:  7.960e-01  linmin:  2.172e-05  t[s]:   8821.86
	FillingsUpdate:  mu: +0.292056655  nElectrons: 339.000000
	SubspaceRotationAdjust: set factor to 0.0997
ElecMinimize: Iter:  14  F: -1819.900860853710356  |grad|_K:  3.760e-06  alpha:  4.268e-01  linmin: -7.633e-06  t[s]:   9245.85
	FillingsUpdate:  mu: +0.292261941  nElectrons: 339.000000
	SubspaceRotationAdjust: set factor to 0.0793
ElecMinimize: Iter:  15  F: -1819.901076924525796  |grad|_K:  2.247e-06  alpha:  3.109e-01  linmin: -2.414e-06  t[s]:   9663.78
	FillingsUpdate:  mu: +0.292721370  nElectrons: 339.000000
	SubspaceRotationAdjust: set factor to 0.0928
ElecMinimize: Iter:  16  F: -1819.901184637791630  |grad|_K:  1.580e-06  alpha:  4.363e-01  linmin: -4.733e-07  t[s]:  10091.72
	FillingsUpdate:  mu: +0.292960060  nElectrons: 339.000000
	SubspaceRotationAdjust: set factor to 0.0984
ElecMinimize: Iter:  17  F: -1819.901235431428631  |grad|_K:  1.140e-06  alpha:  4.161e-01  linmin: -4.074e-07  t[s]:  10515.90
	FillingsUpdate:  mu: +0.292977241  nElectrons: 339.000000
	SubspaceRotationAdjust: set factor to 0.113
ElecMinimize: Iter:  18  F: -1819.901260575643846  |grad|_K:  8.334e-07  alpha:  3.958e-01  linmin:  1.086e-06  t[s]:  10935.57
	FillingsUpdate:  mu: +0.292876310  nElectrons: 339.000000
	SubspaceRotationAdjust: set factor to 0.142
ElecMinimize: Iter:  19  F: -1819.901276729633310  |grad|_K:  7.221e-07  alpha:  4.765e-01  linmin:  2.569e-06  t[s]:  11361.20
	FillingsUpdate:  mu: +0.292852304  nElectrons: 339.000000
	SubspaceRotationAdjust: set factor to 0.192
ElecMinimize: Iter:  20  F: -1819.901290364767192  |grad|_K:  7.476e-07  alpha:  5.366e-01  linmin:  2.846e-06  t[s]:  11780.68
	FillingsUpdate:  mu: +0.292842175  nElectrons: 339.000000
	SubspaceRotationAdjust: set factor to 0.219
ElecMinimize: Iter:  21  F: -1819.901305865683526  |grad|_K:  8.900e-07  alpha:  5.704e-01  linmin:  4.018e-06  t[s]:  12203.16
	FillingsUpdate:  mu: +0.292705608  nElectrons: 339.000000
	SubspaceRotationAdjust: set factor to 0.196
ElecMinimize: Iter:  22  F: -1819.901317096717776  |grad|_K:  9.782e-07  alpha:  2.899e-01  linmin: -1.074e-06  t[s]:  12622.70
	FillingsUpdate:  mu: +0.292530924  nElectrons: 339.000000
	SubspaceRotationAdjust: set factor to 0.184
ElecMinimize: Iter:  23  F: -1819.901330032601436  |grad|_K:  7.446e-07  alpha:  2.756e-01  linmin:  3.064e-06  t[s]:  13046.76
	FillingsUpdate:  mu: +0.292444612  nElectrons: 339.000000
	SubspaceRotationAdjust: set factor to 0.216
ElecMinimize: Iter:  24  F: -1819.901339537286276  |grad|_K:  5.911e-07  alpha:  3.554e-01  linmin:  4.415e-06  t[s]:  13465.83
	FillingsUpdate:  mu: +0.292429206  nElectrons: 339.000000
	SubspaceRotationAdjust: set factor to 0.272
ElecMinimize: Iter:  25  F: -1819.901346001113779  |grad|_K:  4.786e-07  alpha:  3.833e-01  linmin:  1.967e-06  t[s]:  13885.67
	FillingsUpdate:  mu: +0.292402480  nElectrons: 339.000000
	SubspaceRotationAdjust: set factor to 0.264
ElecMinimize: Iter:  26  F: -1819.901349958934134  |grad|_K:  4.520e-07  alpha:  3.551e-01  linmin:  3.824e-07  t[s]:  14301.63
	FillingsUpdate:  mu: +0.292400779  nElectrons: 339.000000
	SubspaceRotationAdjust: set factor to 0.198
ElecMinimize: Iter:  27  F: -1819.901352113855637  |grad|_K:  4.551e-07  alpha:  2.159e-01  linmin: -1.358e-07  t[s]:  14719.78
	FillingsUpdate:  mu: +0.292447880  nElectrons: 339.000000
	SubspaceRotationAdjust: set factor to 0.247
ElecMinimize: Iter:  28  F: -1819.901354044028949  |grad|_K:  3.190e-07  alpha:  1.906e-01  linmin:  3.092e-07  t[s]:  15140.52
	FillingsUpdate:  mu: +0.292515720  nElectrons: 339.000000
	SubspaceRotationAdjust: set factor to 0.298
ElecMinimize: Iter:  29  F: -1819.901355994518781  |grad|_K:  2.893e-07  alpha:  3.931e-01  linmin:  1.415e-06  t[s]:  15560.83
	FillingsUpdate:  mu: +0.292542577  nElectrons: 339.000000
	SubspaceRotationAdjust: set factor to 0.238
ElecMinimize: Iter:  30  F: -1819.901357274392694  |grad|_K:  3.543e-07  alpha:  3.137e-01  linmin:  2.888e-07  t[s]:  15986.20
	FillingsUpdate:  mu: +0.292573113  nElectrons: 339.000000
	SubspaceRotationAdjust: set factor to 0.225
ElecMinimize: Iter:  31  F: -1819.901358182283047  |grad|_K:  2.812e-07  alpha:  1.480e-01  linmin: -8.764e-08  t[s]:  16410.51
	FillingsUpdate:  mu: +0.292616829  nElectrons: 339.000000
	SubspaceRotationAdjust: set factor to 0.319
ElecMinimize: Iter:  32  F: -1819.901359439972566  |grad|_K:  2.401e-07  alpha:  3.258e-01  linmin:  4.110e-07  t[s]:  16835.91
	FillingsUpdate:  mu: +0.292640002  nElectrons: 339.000000
	SubspaceRotationAdjust: set factor to 0.251
ElecMinimize: Iter:  33  F: -1819.901360174112369  |grad|_K:  3.025e-07  alpha:  2.610e-01  linmin: -1.048e-07  t[s]:  17259.13
	FillingsUpdate:  mu: +0.292657613  nElectrons: 339.000000
	SubspaceRotationAdjust: set factor to 0.261
ElecMinimize: Iter:  34  F: -1819.901360814003283  |grad|_K:  2.053e-07  alpha:  1.432e-01  linmin:  1.269e-07  t[s]:  17680.08
	FillingsUpdate:  mu: +0.292640065  nElectrons: 339.000000
	SubspaceRotationAdjust: set factor to 0.343
ElecMinimize: Iter:  35  F: -1819.901361501211795  |grad|_K:  1.790e-07  alpha:  3.336e-01  linmin: -8.665e-07  t[s]:  18104.80
	FillingsUpdate:  mu: +0.292624707  nElectrons: 339.000000
	SubspaceRotationAdjust: set factor to 0.248
ElecMinimize: Iter:  36  F: -1819.901361901505197  |grad|_K:  2.238e-07  alpha:  2.550e-01  linmin: -6.727e-08  t[s]:  18531.24
	FillingsUpdate:  mu: +0.292620093  nElectrons: 339.000000
	SubspaceRotationAdjust: set factor to 0.26
ElecMinimize: Iter:  37  F: -1819.901362206847352  |grad|_K:  1.436e-07  alpha:  1.249e-01  linmin:  6.390e-08  t[s]:  18949.56
	FillingsUpdate:  mu: +0.292608238  nElectrons: 339.000000
	SubspaceRotationAdjust: set factor to 0.35
ElecMinimize: Iter:  38  F: -1819.901362551091779  |grad|_K:  1.277e-07  alpha:  3.425e-01  linmin:  6.634e-07  t[s]:  19369.67
	FillingsUpdate:  mu: +0.292587453  nElectrons: 339.000000
	SubspaceRotationAdjust: set factor to 0.262
ElecMinimize: Iter:  39  F: -1819.901362722532213  |grad|_K:  1.532e-07  alpha:  2.155e-01  linmin:  1.098e-07  t[s]:  19788.91
	FillingsUpdate:  mu: +0.292569761  nElectrons: 339.000000
	SubspaceRotationAdjust: set factor to 0.285
ElecMinimize: Iter:  40  F: -1819.901362879109001  |grad|_K:  1.006e-07  alpha:  1.366e-01  linmin: -2.887e-09  t[s]:  20212.85
	FillingsUpdate:  mu: +0.292556651  nElectrons: 339.000000
	SubspaceRotationAdjust: set factor to 0.344
ElecMinimize: Iter:  41  F: -1819.901363053004161  |grad|_K:  9.080e-08  alpha:  3.503e-01  linmin: -9.556e-07  t[s]:  20636.11
	FillingsUpdate:  mu: +0.292554717  nElectrons: 339.000000
	SubspaceRotationAdjust: set factor to 0.248
ElecMinimize: Iter:  42  F: -1819.901363153381908  |grad|_K:  1.164e-07  alpha:  2.482e-01  linmin: -4.195e-08  t[s]:  21055.97
	FillingsUpdate:  mu: +0.292556763  nElectrons: 339.000000
	SubspaceRotationAdjust: set factor to 0.263
ElecMinimize: Iter:  43  F: -1819.901363241244326  |grad|_K:  8.011e-08  alpha:  1.327e-01  linmin:  6.912e-08  t[s]:  21472.12
	FillingsUpdate:  mu: +0.292548897  nElectrons: 339.000000
	SubspaceRotationAdjust: set factor to 0.331
ElecMinimize: Iter:  44  F: -1819.901363348230461  |grad|_K:  7.345e-08  alpha:  3.403e-01  linmin: -6.691e-07  t[s]:  21892.74
	FillingsUpdate:  mu: +0.292547048  nElectrons: 339.000000
	SubspaceRotationAdjust: set factor to 0.264
ElecMinimize: Iter:  45  F: -1819.901363402562538  |grad|_K:  8.833e-08  alpha:  2.051e-01  linmin:  3.674e-08  t[s]:  22322.78
	FillingsUpdate:  mu: +0.292554571  nElectrons: 339.000000
	SubspaceRotationAdjust: set factor to 0.293
ElecMinimize: Iter:  46  F: -1819.901363463377265  |grad|_K:  5.798e-08  alpha:  1.594e-01  linmin: -1.317e-07  t[s]:  22740.29
	FillingsUpdate:  mu: +0.292566211  nElectrons: 339.000000
	SubspaceRotationAdjust: set factor to 0.377
ElecMinimize: Iter:  47  F: -1819.901363519505821  |grad|_K:  5.278e-08  alpha:  3.413e-01  linmin: -1.113e-07  t[s]:  23159.26
	FillingsUpdate:  mu: +0.292567457  nElectrons: 339.000000
	SubspaceRotationAdjust: set factor to 0.291
ElecMinimize: Iter:  48  F: -1819.901363547276787  |grad|_K:  6.339e-08  alpha:  2.042e-01  linmin:  1.198e-07  t[s]:  23577.98
	FillingsUpdate:  mu: +0.292569874  nElectrons: 339.000000
	SubspaceRotationAdjust: set factor to 0.286
ElecMinimize: Iter:  49  F: -1819.901363572238097  |grad|_K:  4.079e-08  alpha:  1.269e-01  linmin:  8.085e-08  t[s]:  23994.71
	FillingsUpdate:  mu: +0.292574127  nElectrons: 339.000000
	SubspaceRotationAdjust: set factor to 0.4
ElecMinimize: Iter:  50  F: -1819.901363599165734  |grad|_K:  3.460e-08  alpha:  3.279e-01  linmin: -1.074e-06  t[s]:  24416.69
	FillingsUpdate:  mu: +0.292578470  nElectrons: 339.000000
	SubspaceRotationAdjust: set factor to 0.285
ElecMinimize: Iter:  51  F: -1819.901363616547314  |grad|_K:  4.246e-08  alpha:  2.931e-01  linmin: -1.348e-07  t[s]:  24838.04
	FillingsUpdate:  mu: +0.292580518  nElectrons: 339.000000
	SubspaceRotationAdjust: set factor to 0.275
ElecMinimize: Iter:  52  F: -1819.901363625858721  |grad|_K:  3.238e-08  alpha:  1.047e-01  linmin:  4.677e-08  t[s]:  25256.67
	FillingsUpdate:  mu: +0.292579111  nElectrons: 339.000000
	SubspaceRotationAdjust: set factor to 0.368
ElecMinimize: Iter:  53  F: -1819.901363641333546  |grad|_K:  2.763e-08  alpha:  2.870e-01  linmin: -3.202e-06  t[s]:  25686.19
	FillingsUpdate:  mu: +0.292578024  nElectrons: 339.000000
	SubspaceRotationAdjust: set factor to 0.273
ElecMinimize: Iter:  54  F: -1819.901363649301175  |grad|_K:  3.581e-08  alpha:  2.062e-01  linmin: -7.478e-07  t[s]:  26102.41
	FillingsUpdate:  mu: +0.292578277  nElectrons: 339.000000
	SubspaceRotationAdjust: set factor to 0.298
ElecMinimize: Iter:  55  F: -1819.901363657725369  |grad|_K:  2.310e-08  alpha:  1.337e-01  linmin:  1.096e-07  t[s]:  26521.14
ElecMinimize: Converged (|Delta F|<1.000000e-08 for 2 iters).
Setting wave functions to eigenvectors of Hamiltonian

# Ionic positions in lattice coordinates:
ion O   0.679200000000000   0.479570000000000   0.326720000000000 1
ion O   0.426160000000000   0.724070000000000   0.326730000000000 1
ion C   0.500000000000000   0.500000000000000   0.297170000000000 1
ion H   0.419980000000000   0.345350000000000   0.319120000000000 1
ion H   0.724710000000000   0.323450000000000   0.305020000000000 1
ion H   0.303290000000000   0.730660000000000   0.305020000000000 1
ion Pt   0.000000000000000   0.000000000000000  -0.166660000000000 0
ion Pt   0.000000000000000   0.500000000000000  -0.166660000000000 0
ion Pt   0.500000000000000   0.000000000000000  -0.166660000000000 0
ion Pt   0.500000000000000   0.500000000000000  -0.166660000000000 0
ion Pt   0.250000000000000   0.250000000000000  -0.083330000000000 0
ion Pt   0.250000000000000   0.750000000000000  -0.083330000000000 0
ion Pt   0.750000000000000   0.250000000000000  -0.083330000000000 0
ion Pt   0.750000000000000   0.750000000000000  -0.083330000000000 0
ion Pt   0.000000000000000   0.000000000000000   0.000000000000000 1
ion Pt   0.000000000000000   0.500000000000000   0.000000000000000 1
ion Pt   0.500000000000000   0.000000000000000   0.000000000000000 1
ion Pt   0.500000000000000   0.500000000000000   0.000000000000000 1
ion Pt   0.250000000000000   0.250000000000000   0.083330000000000 1
ion Pt   0.250000000000000   0.750000000000000   0.083330000000000 1
ion Pt   0.750000000000000   0.250000000000000   0.083330000000000 1
ion Pt   0.750000000000000   0.750000000000000   0.083330000000000 1
ion Pt   0.000000000000000   0.000000000000000   0.166660000000000 1
ion Pt   0.000000000000000   0.500000000000000   0.166660000000000 1
ion Pt   0.500000000000000   0.000000000000000   0.166660000000000 1
ion Pt   0.500000000000000   0.500000000000000   0.166660000000000 1


# Forces in Lattice coordinates:
force O  -0.436569191657475   0.181048000864818  -0.230519981935387 1
force O   0.342863962586115  -0.175204592645194  -0.163502915610341 1
force C   0.301836412313412   0.232365595844138   0.059051259186289 1
force H  -0.133218813547727  -0.126107643201821  -0.065422462961200 1
force H   0.041299028432109  -0.079666826259283  -0.105823664953425 1
force H  -0.125339130856755  -0.002659687953554  -0.107070953071953 1
force Pt  -0.000179893734970   0.000438046778164  -0.284979077302498 0
force Pt   0.000590890163990  -0.000392573133101  -0.282765132688851 0
force Pt   0.000702159642721   0.001980444024450  -0.269132826484011 0
force Pt  -0.000454378684881  -0.001916851468906  -0.399179934226994 0
force Pt   0.007086891685465   0.003385753383867  -0.940294670308154 0
force Pt   0.006320143908663  -0.003744334692800  -0.939688205707342 0
force Pt  -0.006841869063002   0.003393914370763  -0.940362002610443 0
force Pt  -0.005999873339135  -0.003991562313336  -0.946513675374081 0
force Pt   0.000287168059295  -0.000705474874236  -0.049772555039950 1
force Pt  -0.005143214606098  -0.001217727949496  -0.008606118512960 1
force Pt  -0.003846604931634   0.000244354058902   0.043016467902933 1
force Pt  -0.000904477071349   0.003904905433827   0.114435750464039 1
force Pt  -0.019660584517846  -0.005522818522239   0.910345090840559 1
force Pt  -0.018708254020687   0.005325360821252   0.890378598839073 1
force Pt   0.018339208791960  -0.007090606149057   0.904553246176662 1
force Pt   0.023331807596324   0.006960195779436   0.885129787527442 1
force Pt  -0.001512153986204   0.000363292579166   0.301205805870883 1
force Pt   0.007823011326646   0.001824718296908   0.297565888323156 1
force Pt   0.011928877781573  -0.008894758473401   0.229891573774516 1
force Pt  -0.004946261646803  -0.025378340807040   1.091218503802937 1

# Energy components:
   Eewald =     2141.3787400440064630
       EH =     3840.7583358867095740
     Eloc =    -8124.9559364451461079
      Enl =      -15.4457320296606024
      Exc =     -576.7622507813097172
 Exc_core =      324.9917923890861857
       KE =      590.3623878186987213
-------------------------------------
     Etot =    -1819.6726631176161391
       TS =        0.2287005401091604
-------------------------------------
        F =    -1819.9013636577253692

IonicMinimize: Iter:   0  F: -1819.901363657725369  |grad|_K:  1.259e-02  t[s]:  26587.69

#--- Lowdin population analysis ---
# oxidation-state O -0.401 -0.392
# oxidation-state C +0.265
# oxidation-state H +0.226 +0.426 +0.427
# oxidation-state Pt +0.070 +0.070 +0.071 +0.065 -0.046 -0.046 -0.046 -0.046 +0.015 +0.015 +0.016 -0.004 -0.044 -0.050 -0.049 -0.042 +0.000 -0.001 +0.005 -0.062


-------- Electronic minimization -----------
	FillingsUpdate:  mu: +0.337019506  nElectrons: 339.000000
ElecMinimize: Iter:   0  F: -1819.676535918343234  |grad|_K:  1.345e-04  alpha:  1.000e+00
	FillingsUpdate:  mu: +0.326485590  nElectrons: 339.000000
	SubspaceRotationAdjust: set factor to 0.177
ElecMinimize: Iter:   1  F: -1819.809412484585209  |grad|_K:  1.199e-04  alpha:  1.746e-01  linmin:  1.121e-02  t[s]:  27327.83
	FillingsUpdate:  mu: +0.274335319  nElectrons: 339.000000
	SubspaceRotationAdjust: set factor to 0.158
ElecMinimize: Iter:   2  F: -1819.874122426297845  |grad|_K:  3.949e-05  alpha:  1.055e-01  linmin:  1.275e-04  t[s]:  27747.16
	FillingsUpdate:  mu: +0.292697315  nElectrons: 339.000000
	SubspaceRotationAdjust: set factor to 0.111
ElecMinimize: Iter:   3  F: -1819.892610497912301  |grad|_K:  2.686e-05  alpha:  2.446e-01  linmin:  9.845e-04  t[s]:  28165.63
	FillingsUpdate:  mu: +0.293899400  nElectrons: 339.000000
	SubspaceRotationAdjust: set factor to 0.108
ElecMinimize: Iter:   4  F: -1819.897796096125603  |grad|_K:  1.168e-05  alpha:  1.487e-01  linmin: -3.495e-05  t[s]:  28590.68
	FillingsUpdate:  mu: +0.292780582  nElectrons: 339.000000
	SubspaceRotationAdjust: set factor to 0.0808
ElecMinimize: Iter:   5  F: -1819.900153867618883  |grad|_K:  1.021e-05  alpha:  3.532e-01  linmin: -3.393e-05  t[s]:  29014.28
	FillingsUpdate:  mu: +0.291093655  nElectrons: 339.000000
	SubspaceRotationAdjust: set factor to 0.0855
ElecMinimize: Iter:   6  F: -1819.901508857617500  |grad|_K:  7.677e-06  alpha:  2.657e-01  linmin:  9.253e-06  t[s]:  29434.87
	FillingsUpdate:  mu: +0.293096138  nElectrons: 339.000000
	SubspaceRotationAdjust: set factor to 0.0823
ElecMinimize: Iter:   7  F: -1819.902862303097891  |grad|_K:  8.247e-06  alpha:  4.709e-01  linmin:  4.148e-05  t[s]:  29855.68
	FillingsUpdate:  mu: +0.294374083  nElectrons: 339.000000
	SubspaceRotationAdjust: set factor to 0.0836
ElecMinimize: Iter:   8  F: -1819.904001218649228  |grad|_K:  7.250e-06  alpha:  3.444e-01  linmin: -8.481e-06  t[s]:  30277.12
	FillingsUpdate:  mu: +0.295225069  nElectrons: 339.000000
	SubspaceRotationAdjust: set factor to 0.0991
ElecMinimize: Iter:   9  F: -1819.905113178367628  |grad|_K:  7.376e-06  alpha:  4.324e-01  linmin: -1.812e-05  t[s]:  30694.79
	FillingsUpdate:  mu: +0.295267924  nElectrons: 339.000000
	SubspaceRotationAdjust: set factor to 0.0918
ElecMinimize: Iter:  10  F: -1819.906140317565360  |grad|_K:  7.241e-06  alpha:  3.851e-01  linmin:  2.783e-05  t[s]:  31111.54
	FillingsUpdate:  mu: +0.294878681  nElectrons: 339.000000
	SubspaceRotationAdjust: set factor to 0.119
ElecMinimize: Iter:  11  F: -1819.907100180806538  |grad|_K:  5.865e-06  alpha:  3.761e-01  linmin: -5.074e-06  t[s]:  31535.11
	FillingsUpdate:  mu: +0.294433009  nElectrons: 339.000000
	SubspaceRotationAdjust: set factor to 0.104
ElecMinimize: Iter:  12  F: -1819.907646258518753  |grad|_K:  4.913e-06  alpha:  3.250e-01  linmin: -1.879e-05  t[s]:  31961.85
	FillingsUpdate:  mu: +0.293901310  nElectrons: 339.000000
	SubspaceRotationAdjust: set factor to 0.118
ElecMinimize: Iter:  13  F: -1819.907980807722197  |grad|_K:  2.910e-06  alpha:  2.830e-01  linmin:  9.810e-06  t[s]:  32378.95
	FillingsUpdate:  mu: +0.293724982  nElectrons: 339.000000
	SubspaceRotationAdjust: set factor to 0.12
ElecMinimize: Iter:  14  F: -1819.908131650031919  |grad|_K:  2.309e-06  alpha:  3.649e-01  linmin:  9.887e-06  t[s]:  32801.85
	FillingsUpdate:  mu: +0.293571041  nElectrons: 339.000000
	SubspaceRotationAdjust: set factor to 0.0984
ElecMinimize: Iter:  15  F: -1819.908192885358858  |grad|_K:  1.385e-06  alpha:  2.353e-01  linmin:  5.726e-07  t[s]:  33223.28
	FillingsUpdate:  mu: +0.293502833  nElectrons: 339.000000
	SubspaceRotationAdjust: set factor to 0.135
ElecMinimize: Iter:  16  F: -1819.908227867079404  |grad|_K:  9.545e-07  alpha:  3.733e-01  linmin: -1.087e-07  t[s]:  33646.05
	FillingsUpdate:  mu: +0.293431190  nElectrons: 339.000000
	SubspaceRotationAdjust: set factor to 0.12
ElecMinimize: Iter:  17  F: -1819.908241969582605  |grad|_K:  7.580e-07  alpha:  3.168e-01  linmin:  9.853e-07  t[s]:  34067.20
	FillingsUpdate:  mu: +0.293327182  nElectrons: 339.000000
	SubspaceRotationAdjust: set factor to 0.122
ElecMinimize: Iter:  18  F: -1819.908250870860002  |grad|_K:  5.108e-07  alpha:  3.171e-01  linmin: -9.321e-07  t[s]:  34488.16
	FillingsUpdate:  mu: +0.293306195  nElectrons: 339.000000
	SubspaceRotationAdjust: set factor to 0.157
ElecMinimize: Iter:  19  F: -1819.908256386998573  |grad|_K:  4.164e-07  alpha:  4.327e-01  linmin:  1.087e-07  t[s]:  34908.00
	FillingsUpdate:  mu: +0.293282229  nElectrons: 339.000000
	SubspaceRotationAdjust: set factor to 0.152
ElecMinimize: Iter:  20  F: -1819.908260157895938  |grad|_K:  4.214e-07  alpha:  4.452e-01  linmin:  6.248e-07  t[s]:  35326.62
	FillingsUpdate:  mu: +0.293243536  nElectrons: 339.000000
	SubspaceRotationAdjust: set factor to 0.127
ElecMinimize: Iter:  21  F: -1819.908262638973156  |grad|_K:  3.673e-07  alpha:  2.860e-01  linmin:  3.054e-08  t[s]:  35747.19
	FillingsUpdate:  mu: +0.293238480  nElectrons: 339.000000
	SubspaceRotationAdjust: set factor to 0.145
ElecMinimize: Iter:  22  F: -1819.908265347857650  |grad|_K:  2.797e-07  alpha:  4.110e-01  linmin:  5.285e-07  t[s]:  36168.73
	FillingsUpdate:  mu: +0.293249975  nElectrons: 339.000000
	SubspaceRotationAdjust: set factor to 0.163
ElecMinimize: Iter:  23  F: -1819.908267140799580  |grad|_K:  2.304e-07  alpha:  4.692e-01  linmin:  1.294e-07  t[s]:  36593.49
	FillingsUpdate:  mu: +0.293239192  nElectrons: 339.000000
	SubspaceRotationAdjust: set factor to 0.142
ElecMinimize: Iter:  24  F: -1819.908268001706801  |grad|_K:  2.012e-07  alpha:  3.318e-01  linmin:  1.020e-08  t[s]:  37016.76
	FillingsUpdate:  mu: +0.293243344  nElectrons: 339.000000
	SubspaceRotationAdjust: set factor to 0.112
ElecMinimize: Iter:  25  F: -1819.908268502776991  |grad|_K:  1.372e-07  alpha:  2.534e-01  linmin: -1.187e-07  t[s]:  37436.11
	FillingsUpdate:  mu: +0.293253986  nElectrons: 339.000000
	SubspaceRotationAdjust: set factor to 0.134
ElecMinimize: Iter:  26  F: -1819.908268845167186  |grad|_K:  8.765e-08  alpha:  3.724e-01  linmin:  1.250e-06  t[s]:  37857.18
	FillingsUpdate:  mu: +0.293258663  nElectrons: 339.000000
	SubspaceRotationAdjust: set factor to 0.143
ElecMinimize: Iter:  27  F: -1819.908268992042622  |grad|_K:  6.599e-08  alpha:  3.914e-01  linmin: -1.561e-06  t[s]:  38278.99
	FillingsUpdate:  mu: +0.293258571  nElectrons: 339.000000
	SubspaceRotationAdjust: set factor to 0.121
ElecMinimize: Iter:  28  F: -1819.908269055438950  |grad|_K:  5.071e-08  alpha:  2.981e-01  linmin:  1.645e-06  t[s]:  38698.81
	FillingsUpdate:  mu: +0.293256290  nElectrons: 339.000000
	SubspaceRotationAdjust: set factor to 0.118
ElecMinimize: Iter:  29  F: -1819.908269094712296  |grad|_K:  3.465e-08  alpha:  3.123e-01  linmin:  1.153e-06  t[s]:  39120.69
	FillingsUpdate:  mu: +0.293259514  nElectrons: 339.000000
	SubspaceRotationAdjust: set factor to 0.152
ElecMinimize: Iter:  30  F: -1819.908269119926445  |grad|_K:  2.521e-08  alpha:  4.254e-01  linmin: -1.046e-05  t[s]:  39541.71
	FillingsUpdate:  mu: +0.293260900  nElectrons: 339.000000
	SubspaceRotationAdjust: set factor to 0.16
ElecMinimize: Iter:  31  F: -1819.908269133648218  |grad|_K:  2.317e-08  alpha:  4.327e-01  linmin: -7.585e-06  t[s]:  39958.84
	FillingsUpdate:  mu: +0.293260095  nElectrons: 339.000000
	SubspaceRotationAdjust: set factor to 0.138
ElecMinimize: Iter:  32  F: -1819.908269141438495  |grad|_K:  2.040e-08  alpha:  2.995e-01  linmin: -1.990e-06  t[s]:  40380.92
	FillingsUpdate:  mu: +0.293261191  nElectrons: 339.000000
	SubspaceRotationAdjust: set factor to 0.137
ElecMinimize: Iter:  33  F: -1819.908269148834506  |grad|_K:  1.599e-08  alpha:  3.651e-01  linmin:  6.611e-06  t[s]:  40803.05
ElecMinimize: Converged (|Delta F|<1.000000e-08 for 2 iters).
Setting wave functions to eigenvectors of Hamiltonian

# Ionic positions in lattice coordinates:
ion O   0.676988119188082   0.481282902150585   0.326477671309834 1
ion O   0.427897122624396   0.722412382560974   0.326558121419039 1
ion C   0.501529256258784   0.502198419904900   0.297232076242463 1
ion H   0.419305045964984   0.344156890701837   0.319051226179944 1
ion H   0.724919241811574   0.322696269070202   0.304908755369919 1
ion H   0.302654968431529   0.730634836589226   0.304907444187723 1
ion Pt   0.000000000000000   0.000000000000000  -0.166660000000000 0
ion Pt   0.000000000000000   0.500000000000000  -0.166660000000000 0
ion Pt   0.500000000000000   0.000000000000000  -0.166660000000000 0
ion Pt   0.500000000000000   0.500000000000000  -0.166660000000000 0
ion Pt   0.250000000000000   0.250000000000000  -0.083330000000000 0
ion Pt   0.250000000000000   0.750000000000000  -0.083330000000000 0
ion Pt   0.750000000000000   0.250000000000000  -0.083330000000000 0
ion Pt   0.750000000000000   0.750000000000000  -0.083330000000000 0
ion Pt   0.000001454938947  -0.000006674525118  -0.000052322223730 1
ion Pt  -0.000026058132173   0.499988479028691  -0.000009046978961 1
ion Pt   0.499980511149660   0.000002311843218   0.000045220046588 1
ion Pt   0.499995417460698   0.500036944461599   0.000120297881708 1
ion Pt   0.249900389513330   0.249947748399989   0.084286978790344 1
ion Pt   0.249905214502343   0.750050383445052   0.084265989486886 1
ion Pt   0.750092915727467   0.249932915500510   0.084280890250343 1
ion Pt   0.750118210763645   0.750065850681930   0.084260471797880 1
ion Pt  -0.000007661338571   0.000003437125167   0.166976635494218 1
ion Pt   0.000039635340687   0.500017263730503   0.166972809116807 1
ion Pt   0.500060437741318  -0.000084153654529   0.166901668090919 1
ion Pt   0.499974939731350   0.499759894534383   0.167807117696660 1


# Forces in Lattice coordinates:
force O  -0.160790245776530   0.032452017467230  -0.259739719389920 1
force O   0.085993997207932  -0.066637292435127  -0.214660325464134 1
force C   0.065883188613518   0.041259111686209   0.114176374796241 1
force H  -0.040658886627794  -0.030176881708318  -0.217615353677112 1
force H  -0.041784352232808   0.062995184542877   0.056526541363447 1
force H   0.078632935384768  -0.013937339106276   0.048444617142351 1
force Pt  -0.000144281943115   0.000402003188176  -0.285674416344713 0
force Pt   0.000593013946407  -0.000354526043005  -0.280741255941108 0
force Pt   0.000784966491753   0.001908547690335  -0.263792775618642 0
force Pt  -0.000392142987474  -0.001812271777080  -0.390529650066145 0
force Pt   0.009025491777795   0.004209589587103  -0.892987085275187 0
force Pt   0.008025602714377  -0.004493111454282  -0.893336559898887 0
force Pt  -0.009183641720250   0.003905531666150  -0.892997164371574 0
force Pt  -0.008140782053633  -0.004444849322600  -0.900344723738705 0
force Pt   0.000145209179314  -0.000464665790509   0.005162491489776 1
force Pt  -0.004065498108572  -0.001173968919763   0.042986802746703 1
force Pt  -0.003541622540991   0.000750123820181   0.088665148048576 1
force Pt  -0.000913641578419   0.002469914599723   0.177463167911256 1
force Pt  -0.012140597972759  -0.001478275433530   0.800425999917990 1
force Pt  -0.010219538723940   0.000328858172072   0.787018236016538 1
force Pt   0.011160093524417  -0.001663463174766   0.797661296319000 1
force Pt   0.013989643546205   0.000349796307211   0.780893023739610 1
force Pt  -0.001255849430444   0.000467541411847   0.324258605423869 1
force Pt   0.008511114922112   0.001571305828655   0.313496219493804 1
force Pt   0.011714789011161  -0.007829706102329   0.243471297867016 1
force Pt  -0.002184335974119  -0.019906055148860   0.906749168295466 1

# Energy components:
   Eewald =     2131.4101943471541745
       EH =     3831.0379277660886146
     Eloc =    -8105.2593489736436823
      Enl =      -15.4475117763771905
      Exc =     -576.7468325027167566
 Exc_core =      324.9917871226774650
       KE =      590.3342761663567444
-------------------------------------
     Etot =    -1819.6795078504605954
       TS =        0.2287612983739388
-------------------------------------
        F =    -1819.9082691488345063

IonicMinimize: Iter:   1  F: -1819.908269148834506  |grad|_K:  8.997e-03  alpha:  1.000e+00  linmin: -6.294e-01  t[s]:  40870.08

#--- Lowdin population analysis ---
# oxidation-state O -0.389 -0.383
# oxidation-state C +0.279
# oxidation-state H +0.216 +0.425 +0.426
# oxidation-state Pt +0.070 +0.070 +0.070 +0.065 -0.046 -0.046 -0.046 -0.046 +0.015 +0.014 +0.015 -0.005 -0.045 -0.052 -0.051 -0.043 -0.003 -0.005 +0.000 -0.065


-------- Electronic minimization -----------
	FillingsUpdate:  mu: +0.429940871  nElectrons: 339.000000
ElecMinimize: Iter:   0  F: -1818.040444676626976  |grad|_K:  3.559e-04  alpha:  1.000e+00
	FillingsUpdate:  mu: +0.371935893  nElectrons: 339.000000
	SubspaceRotationAdjust: set factor to 0.0838
ElecMinimize: Iter:   1  F: -1819.506386810332060  |grad|_K:  1.743e-04  alpha:  2.650e-01  linmin:  2.194e-02  t[s]:  41616.05
	FillingsUpdate:  mu: +0.273436071  nElectrons: 339.000000
	SubspaceRotationAdjust: set factor to 0.0733
ElecMinimize: Iter:   2  F: -1819.750528021296759  |grad|_K:  6.190e-05  alpha:  1.799e-01  linmin:  1.249e-04  t[s]:  42031.43
	FillingsUpdate:  mu: +0.292789362  nElectrons: 339.000000
	SubspaceRotationAdjust: set factor to 0.0857
ElecMinimize: Iter:   3  F: -1819.813386731660330  |grad|_K:  3.027e-05  alpha:  3.363e-01  linmin:  2.360e-04  t[s]:  42452.50
	FillingsUpdate:  mu: +0.294391584  nElectrons: 339.000000
	SubspaceRotationAdjust: set factor to 0.0783
ElecMinimize: Iter:   4  F: -1819.828815947731755  |grad|_K:  2.243e-05  alpha:  3.454e-01  linmin:  2.251e-06  t[s]:  42869.03
	FillingsUpdate:  mu: +0.290880278  nElectrons: 339.000000
	SubspaceRotationAdjust: set factor to 0.0993
ElecMinimize: Iter:   5  F: -1819.843904102792521  |grad|_K:  2.406e-05  alpha:  6.162e-01  linmin:  1.095e-04  t[s]:  43291.16
	FillingsUpdate:  mu: +0.300644713  nElectrons: 339.000000
	SubspaceRotationAdjust: set factor to 0.0986
ElecMinimize: Iter:   6  F: -1819.862988166594732  |grad|_K:  2.721e-05  alpha:  6.817e-01  linmin:  1.727e-04  t[s]:  43710.47
	FillingsUpdate:  mu: +0.302832562  nElectrons: 339.000000
	SubspaceRotationAdjust: set factor to 0.0892
ElecMinimize: Iter:   7  F: -1819.877939813345392  |grad|_K:  2.617e-05  alpha:  4.312e-01  linmin:  2.615e-05  t[s]:  44137.63
	FillingsUpdate:  mu: +0.300794722  nElectrons: 339.000000
	SubspaceRotationAdjust: set factor to 0.0916
ElecMinimize: Iter:   8  F: -1819.896105677993319  |grad|_K:  2.351e-05  alpha:  5.497e-01  linmin:  2.090e-04  t[s]:  44564.89
	FillingsUpdate:  mu: +0.298221265  nElectrons: 339.000000
	SubspaceRotationAdjust: set factor to 0.109
ElecMinimize: Iter:   9  F: -1819.909908656626385  |grad|_K:  1.777e-05  alpha:  5.268e-01  linmin:  1.088e-04  t[s]:  44982.39
	FillingsUpdate:  mu: +0.295941829  nElectrons: 339.000000
	SubspaceRotationAdjust: set factor to 0.0794
ElecMinimize: Iter:  10  F: -1819.914787989685692  |grad|_K:  1.179e-05  alpha:  3.233e-01  linmin:  2.886e-05  t[s]:  45407.73
	FillingsUpdate:  mu: +0.296037442  nElectrons: 339.000000
	SubspaceRotationAdjust: set factor to 0.0773
ElecMinimize: Iter:  11  F: -1819.917227591377923  |grad|_K:  6.812e-06  alpha:  3.601e-01  linmin:  3.850e-05  t[s]:  45831.15
	FillingsUpdate:  mu: +0.295693406  nElectrons: 339.000000
	SubspaceRotationAdjust: set factor to 0.0945
ElecMinimize: Iter:  12  F: -1819.918211490287831  |grad|_K:  3.985e-06  alpha:  4.349e-01  linmin:  4.572e-09  t[s]:  46248.93
	FillingsUpdate:  mu: +0.294998193  nElectrons: 339.000000
	SubspaceRotationAdjust: set factor to 0.0976
ElecMinimize: Iter:  13  F: -1819.918540262996657  |grad|_K:  2.809e-06  alpha:  4.237e-01  linmin: -2.132e-05  t[s]:  46666.40
	FillingsUpdate:  mu: +0.294699926  nElectrons: 339.000000
	SubspaceRotationAdjust: set factor to 0.0977
ElecMinimize: Iter:  14  F: -1819.918689960326674  |grad|_K:  2.059e-06  alpha:  3.880e-01  linmin:  1.033e-06  t[s]:  47088.73
	FillingsUpdate:  mu: +0.294554003  nElectrons: 339.000000
	SubspaceRotationAdjust: set factor to 0.118
ElecMinimize: Iter:  15  F: -1819.918791574507395  |grad|_K:  1.510e-06  alpha:  4.907e-01  linmin: -1.750e-05  t[s]:  47508.50
	FillingsUpdate:  mu: +0.294454616  nElectrons: 339.000000
	SubspaceRotationAdjust: set factor to 0.148
ElecMinimize: Iter:  16  F: -1819.918853299787543  |grad|_K:  1.340e-06  alpha:  5.534e-01  linmin:  1.411e-06  t[s]:  47928.11
	FillingsUpdate:  mu: +0.294404587  nElectrons: 339.000000
	SubspaceRotationAdjust: set factor to 0.177
ElecMinimize: Iter:  17  F: -1819.918903390248943  |grad|_K:  1.298e-06  alpha:  5.706e-01  linmin:  1.484e-06  t[s]:  48348.85
	FillingsUpdate:  mu: +0.294467663  nElectrons: 339.000000
	SubspaceRotationAdjust: set factor to 0.157
ElecMinimize: Iter:  18  F: -1819.918941473745235  |grad|_K:  1.367e-06  alpha:  4.627e-01  linmin: -2.280e-06  t[s]:  48771.07
	FillingsUpdate:  mu: +0.294538309  nElectrons: 339.000000
	SubspaceRotationAdjust: set factor to 0.112
ElecMinimize: Iter:  19  F: -1819.918962361013882  |grad|_K:  1.026e-06  alpha:  2.288e-01  linmin: -2.885e-06  t[s]:  49190.97
	FillingsUpdate:  mu: +0.294449331  nElectrons: 339.000000
	SubspaceRotationAdjust: set factor to 0.132
ElecMinimize: Iter:  20  F: -1819.918982684914454  |grad|_K:  6.564e-07  alpha:  3.950e-01  linmin: -2.917e-06  t[s]:  49612.02
	FillingsUpdate:  mu: +0.294409891  nElectrons: 339.000000
	SubspaceRotationAdjust: set factor to 0.148
ElecMinimize: Iter:  21  F: -1819.918992202223308  |grad|_K:  4.873e-07  alpha:  4.520e-01  linmin: -7.320e-07  t[s]:  50031.71
	FillingsUpdate:  mu: +0.294440000  nElectrons: 339.000000
	SubspaceRotationAdjust: set factor to 0.133
ElecMinimize: Iter:  22  F: -1819.918996169081083  |grad|_K:  4.123e-07  alpha:  3.419e-01  linmin:  8.838e-07  t[s]:  50456.97
	FillingsUpdate:  mu: +0.294426728  nElectrons: 339.000000
	SubspaceRotationAdjust: set factor to 0.124
ElecMinimize: Iter:  23  F: -1819.918998441917438  |grad|_K:  2.815e-07  alpha:  2.737e-01  linmin: -1.464e-07  t[s]:  50879.82
	FillingsUpdate:  mu: +0.294390514  nElectrons: 339.000000
	SubspaceRotationAdjust: set factor to 0.158
ElecMinimize: Iter:  24  F: -1819.919000177683301  |grad|_K:  2.143e-07  alpha:  4.484e-01  linmin:  5.943e-07  t[s]:  51301.62
	FillingsUpdate:  mu: +0.294370089  nElectrons: 339.000000
	SubspaceRotationAdjust: set factor to 0.196
ElecMinimize: Iter:  25  F: -1819.919001232387473  |grad|_K:  1.736e-07  alpha:  4.701e-01  linmin:  8.368e-07  t[s]:  51722.33
	FillingsUpdate:  mu: +0.294360270  nElectrons: 339.000000
	SubspaceRotationAdjust: set factor to 0.154
ElecMinimize: Iter:  26  F: -1819.919001805811604  |grad|_K:  1.887e-07  alpha:  3.893e-01  linmin: -5.210e-07  t[s]:  52138.75
	FillingsUpdate:  mu: +0.294363403  nElectrons: 339.000000
	SubspaceRotationAdjust: set factor to 0.119
ElecMinimize: Iter:  27  F: -1819.919002181522956  |grad|_K:  1.380e-07  alpha:  2.159e-01  linmin: -9.530e-07  t[s]:  52557.76
	FillingsUpdate:  mu: +0.294363085  nElectrons: 339.000000
	SubspaceRotationAdjust: set factor to 0.159
ElecMinimize: Iter:  28  F: -1819.919002579500784  |grad|_K:  9.553e-08  alpha:  4.277e-01  linmin: -1.953e-06  t[s]:  52976.67
	FillingsUpdate:  mu: +0.294368094  nElectrons: 339.000000
	SubspaceRotationAdjust: set factor to 0.153
ElecMinimize: Iter:  29  F: -1819.919002759007526  |grad|_K:  8.657e-08  alpha:  4.024e-01  linmin: -1.200e-06  t[s]:  53393.20
	FillingsUpdate:  mu: +0.294376740  nElectrons: 339.000000
	SubspaceRotationAdjust: set factor to 0.123
ElecMinimize: Iter:  30  F: -1819.919002847882439  |grad|_K:  6.624e-08  alpha:  2.426e-01  linmin: -2.128e-06  t[s]:  53810.69
	FillingsUpdate:  mu: +0.294382536  nElectrons: 339.000000
	SubspaceRotationAdjust: set factor to 0.152
ElecMinimize: Iter:  31  F: -1819.919002926875692  |grad|_K:  4.452e-08  alpha:  3.689e-01  linmin: -4.964e-06  t[s]:  54232.52
	FillingsUpdate:  mu: +0.294387785  nElectrons: 339.000000
	SubspaceRotationAdjust: set factor to 0.181
ElecMinimize: Iter:  32  F: -1819.919002966450989  |grad|_K:  3.415e-08  alpha:  4.072e-01  linmin:  4.846e-06  t[s]:  54653.14
	FillingsUpdate:  mu: +0.294393269  nElectrons: 339.000000
	SubspaceRotationAdjust: set factor to 0.15
ElecMinimize: Iter:  33  F: -1819.919002984772760  |grad|_K:  3.428e-08  alpha:  3.215e-01  linmin:  6.347e-06  t[s]:  55075.05
	FillingsUpdate:  mu: +0.294395429  nElectrons: 339.000000
	SubspaceRotationAdjust: set factor to 0.144
ElecMinimize: Iter:  34  F: -1819.919002999404029  |grad|_K:  2.378e-08  alpha:  2.560e-01  linmin: -1.764e-05  t[s]:  55492.32
	FillingsUpdate:  mu: +0.294395574  nElectrons: 339.000000
	SubspaceRotationAdjust: set factor to 0.187
ElecMinimize: Iter:  35  F: -1819.919003012071244  |grad|_K:  1.824e-08  alpha:  4.538e-01  linmin:  1.429e-05  t[s]:  55912.85
	FillingsUpdate:  mu: +0.294395797  nElectrons: 339.000000
	SubspaceRotationAdjust: set factor to 0.217
ElecMinimize: Iter:  36  F: -1819.919003019763295  |grad|_K:  1.719e-08  alpha:  4.725e-01  linmin: -4.189e-05  t[s]:  56330.73
	FillingsUpdate:  mu: +0.294394495  nElectrons: 339.000000
	SubspaceRotationAdjust: set factor to 0.176
ElecMinimize: Iter:  37  F: -1819.919003023777805  |grad|_K:  1.802e-08  alpha:  2.674e-01  linmin: -2.053e-06  t[s]:  56750.85
ElecMinimize: Converged (|Delta F|<1.000000e-08 for 2 iters).
Setting wave functions to eigenvectors of Hamiltonian

# Ionic positions in lattice coordinates:
ion O   0.673598345024030   0.483006681331957   0.325594766175540 1
ion O   0.429991272461086   0.719816508060228   0.325842858481019 1
ion C   0.503234337503054   0.504400495119862   0.297597627792572 1
ion H   0.418389192718314   0.342756804954181   0.318379641457279 1
ion H   0.724436232092273   0.323972525033084   0.305017681969134 1
ion H   0.303441494964595   0.730255074848230   0.304992059876954 1
ion Pt   0.000000000000000   0.000000000000000  -0.166660000000000 0
ion Pt   0.000000000000000   0.500000000000000  -0.166660000000000 0
ion Pt   0.500000000000000   0.000000000000000  -0.166660000000000 0
ion Pt   0.500000000000000   0.500000000000000  -0.166660000000000 0
ion Pt   0.250000000000000   0.250000000000000  -0.083330000000000 0
ion Pt   0.250000000000000   0.750000000000000  -0.083330000000000 0
ion Pt   0.750000000000000   0.250000000000000  -0.083330000000000 0
ion Pt   0.750000000000000   0.750000000000000  -0.083330000000000 0
ion Pt   0.000004240871877  -0.000022297098395  -0.000063770773205 1
ion Pt  -0.000096609275299   0.499951719918869   0.000112129514628 1
ion Pt   0.499920680906898   0.000023236986186   0.000327578479367 1
ion Pt   0.499980208752332   0.500120729798397   0.000700555787876 1
ion Pt   0.249678645839282   0.249882306361700   0.087114456828168 1
ion Pt   0.249713008052709   0.750084611488493   0.087043588364039 1
ion Pt   0.750297435953909   0.249855069750408   0.087097189693443 1
ion Pt   0.750375466918172   0.750108479405143   0.087017349844116 1
ion Pt  -0.000029257914879   0.000017492495419   0.168086014686353 1
ion Pt   0.000179763790118   0.500067399685153   0.168048758681648 1
ion Pt   0.500256297665739  -0.000333028437732   0.167736641013638 1
ion Pt   0.499931421030392   0.499113887990524   0.171042160454505 1


# Forces in Lattice coordinates:
force O   0.229656328498712  -0.018140575294516   0.045758116407164 1
force O  -0.074521847236414   0.107214669099678   0.004912955292870 1
force C  -0.266418093867831  -0.176083970255092   0.013065492581254 1
force H   0.026761806629410   0.040598163101507  -0.291060703141143 1
force H  -0.072304539400499   0.097500377092476   0.074730868244934 1
force H   0.142190426731296  -0.025110333984018   0.075799301575687 1
force Pt  -0.000107663559880   0.000346777256969  -0.278144031101805 0
force Pt   0.000729319034726  -0.000298913357375  -0.265599205967698 0
force Pt   0.001067164011923   0.001812000938685  -0.238755651656931 0
force Pt  -0.000301892295466  -0.001736307601308  -0.350481458149310 0
force Pt   0.015539115110892   0.006814995493798  -0.759867540458941 0
force Pt   0.014052104312333  -0.006904195848331  -0.764146629557764 0
force Pt  -0.017008869677740   0.005761963850017  -0.761624083728947 0
force Pt  -0.015434940966644  -0.006069567943699  -0.769919177815109 0
force Pt   0.000382105909099   0.000008216093956   0.153106710983734 1
force Pt  -0.001557897697040  -0.000956674645920   0.173941129682056 1
force Pt  -0.002272396301971   0.001499717274579   0.199092725733867 1
force Pt  -0.000686546742217   0.000027192736349   0.307692406122724 1
force Pt   0.004252312336696   0.006691805015492   0.507694269839204 1
force Pt   0.008169390875734  -0.009826430835517   0.502791951681167 1
force Pt  -0.003451160748585   0.009138353429957   0.504552512492221 1
force Pt  -0.005317335366364  -0.012947334570684   0.498388087713526 1
force Pt  -0.000658865523192   0.000297528511423   0.372161841607976 1
force Pt   0.007892755587148   0.001050551367104   0.349703950710875 1
force Pt   0.010327989999049  -0.006435741746709   0.284227734495572 1
force Pt  -0.002138178984318  -0.015026277667526   0.417589693895389 1

# Energy components:
   Eewald =     2101.2850549404874982
       EH =     3801.3649565740552134
     Eloc =    -8045.4725027968634095
      Enl =      -15.4453620073829754
      Exc =     -576.7266340198862054
 Exc_core =      324.9917851108026525
       KE =      590.3126200949217264
-------------------------------------
     Etot =    -1819.6900821038652794
       TS =        0.2289209199125806
-------------------------------------
        F =    -1819.9190030237778046

IonicMinimize: Iter:   2  F: -1819.919003023777805  |grad|_K:  7.723e-03  alpha:  7.873e-01  linmin: -3.740e-01  t[s]:  56818.16

#--- Lowdin population analysis ---
# oxidation-state O -0.373 -0.373
# oxidation-state C +0.298
# oxidation-state H +0.206 +0.429 +0.428
# oxidation-state Pt +0.069 +0.070 +0.069 +0.065 -0.046 -0.046 -0.046 -0.046 +0.013 +0.011 +0.012 -0.009 -0.048 -0.055 -0.054 -0.045 -0.006 -0.010 -0.007 -0.064


-------- Electronic minimization -----------
	FillingsUpdate:  mu: +0.464268405  nElectrons: 339.000000
ElecMinimize: Iter:   0  F: -1817.452837373637749  |grad|_K:  4.289e-04  alpha:  1.000e+00
	FillingsUpdate:  mu: +0.402213777  nElectrons: 339.000000
	SubspaceRotationAdjust: set factor to 0.104
ElecMinimize: Iter:   1  F: -1819.192964770337085  |grad|_K:  2.780e-04  alpha:  2.420e-01  linmin:  2.991e-02  t[s]:  57563.41
	FillingsUpdate:  mu: +0.268712858  nElectrons: 339.000000
	SubspaceRotationAdjust: set factor to 0.162
ElecMinimize: Iter:   2  F: -1819.658695107469157  |grad|_K:  9.287e-05  alpha:  1.463e-01  linmin:  8.527e-05  t[s]:  57984.42
	FillingsUpdate:  mu: +0.303369560  nElectrons: 339.000000
	SubspaceRotationAdjust: set factor to 0.11
ElecMinimize: Iter:   3  F: -1819.777563677240323  |grad|_K:  6.526e-05  alpha:  2.851e-01  linmin:  2.156e-03  t[s]:  58405.28
	FillingsUpdate:  mu: +0.295011720  nElectrons: 339.000000
	SubspaceRotationAdjust: set factor to 0.113
ElecMinimize: Iter:   4  F: -1819.808846309251066  |grad|_K:  3.205e-05  alpha:  1.524e-01  linmin: -1.202e-04  t[s]:  58824.69
	FillingsUpdate:  mu: +0.300907891  nElectrons: 339.000000
	SubspaceRotationAdjust: set factor to 0.0809
ElecMinimize: Iter:   5  F: -1819.830531342478707  |grad|_K:  3.438e-05  alpha:  4.292e-01  linmin: -1.988e-04  t[s]:  59245.75
	FillingsUpdate:  mu: +0.292211909  nElectrons: 339.000000
	SubspaceRotationAdjust: set factor to 0.0761
ElecMinimize: Iter:   6  F: -1819.847606019214027  |grad|_K:  2.974e-05  alpha:  2.891e-01  linmin:  4.677e-06  t[s]:  59669.38
	FillingsUpdate:  mu: +0.306135195  nElectrons: 339.000000
	SubspaceRotationAdjust: set factor to 0.059
ElecMinimize: Iter:   7  F: -1819.866070125573742  |grad|_K:  3.066e-05  alpha:  4.306e-01  linmin:  2.528e-04  t[s]:  60087.94
	FillingsUpdate:  mu: +0.301793785  nElectrons: 339.000000
	SubspaceRotationAdjust: set factor to 0.0701
ElecMinimize: Iter:   8  F: -1819.880509150425041  |grad|_K:  2.550e-05  alpha:  3.236e-01  linmin: -4.590e-05  t[s]:  60507.04
	FillingsUpdate:  mu: +0.304193188  nElectrons: 339.000000
	SubspaceRotationAdjust: set factor to 0.0749
ElecMinimize: Iter:   9  F: -1819.893744970322359  |grad|_K:  2.483e-05  alpha:  4.125e-01  linmin: -1.334e-04  t[s]:  60926.71
	FillingsUpdate:  mu: +0.299622703  nElectrons: 339.000000
	SubspaceRotationAdjust: set factor to 0.0719
ElecMinimize: Iter:  10  F: -1819.906053773064286  |grad|_K:  2.339e-05  alpha:  4.026e-01  linmin:  1.163e-04  t[s]:  61351.21
	FillingsUpdate:  mu: +0.299358493  nElectrons: 339.000000
	SubspaceRotationAdjust: set factor to 0.0875
ElecMinimize: Iter:  11  F: -1819.915610767065800  |grad|_K:  1.928e-05  alpha:  3.629e-01  linmin:  3.799e-05  t[s]:  61778.20
	FillingsUpdate:  mu: +0.296078608  nElectrons: 339.000000
	SubspaceRotationAdjust: set factor to 0.082
ElecMinimize: Iter:  12  F: -1819.920964335980898  |grad|_K:  1.397e-05  alpha:  2.971e-01  linmin: -4.330e-05  t[s]:  62196.86
	FillingsUpdate:  mu: +0.295220404  nElectrons: 339.000000
	SubspaceRotationAdjust: set factor to 0.098
ElecMinimize: Iter:  13  F: -1819.924023313435782  |grad|_K:  9.859e-06  alpha:  3.196e-01  linmin: -1.537e-05  t[s]:  62617.94
	FillingsUpdate:  mu: +0.294447497  nElectrons: 339.000000
	SubspaceRotationAdjust: set factor to 0.0868
ElecMinimize: Iter:  14  F: -1819.925383944752866  |grad|_K:  7.046e-06  alpha:  2.861e-01  linmin:  1.811e-05  t[s]:  63039.18
	FillingsUpdate:  mu: +0.294351632  nElectrons: 339.000000
	SubspaceRotationAdjust: set factor to 0.109
ElecMinimize: Iter:  15  F: -1819.926158945576162  |grad|_K:  4.658e-06  alpha:  3.198e-01  linmin:  2.522e-07  t[s]:  63461.27
	FillingsUpdate:  mu: +0.294185681  nElectrons: 339.000000
	SubspaceRotationAdjust: set factor to 0.0974
ElecMinimize: Iter:  16  F: -1819.926470719414510  |grad|_K:  3.537e-06  alpha:  2.941e-01  linmin: -1.382e-05  t[s]:  63887.08
	FillingsUpdate:  mu: +0.294072551  nElectrons: 339.000000
	SubspaceRotationAdjust: set factor to 0.127
ElecMinimize: Iter:  17  F: -1819.926673368782758  |grad|_K:  2.465e-06  alpha:  3.313e-01  linmin:  5.704e-06  t[s]:  64307.84
	FillingsUpdate:  mu: +0.294093521  nElectrons: 339.000000
	SubspaceRotationAdjust: set factor to 0.129
ElecMinimize: Iter:  18  F: -1819.926788877302215  |grad|_K:  2.280e-06  alpha:  3.891e-01  linmin:  7.972e-06  t[s]:  64728.71
	FillingsUpdate:  mu: +0.294057159  nElectrons: 339.000000
	SubspaceRotationAdjust: set factor to 0.128
ElecMinimize: Iter:  19  F: -1819.926863071236312  |grad|_K:  1.900e-06  alpha:  2.923e-01  linmin: -2.788e-06  t[s]:  65148.80
	FillingsUpdate:  mu: +0.294160454  nElectrons: 339.000000
	SubspaceRotationAdjust: set factor to 0.157
ElecMinimize: Iter:  20  F: -1819.926950354240944  |grad|_K:  1.835e-06  alpha:  4.945e-01  linmin:  1.490e-06  t[s]:  65571.81
	FillingsUpdate:  mu: +0.294215403  nElectrons: 339.000000
	SubspaceRotationAdjust: set factor to 0.152
ElecMinimize: Iter:  21  F: -1819.927012916660487  |grad|_K:  1.864e-06  alpha:  3.803e-01  linmin:  3.253e-06  t[s]:  65993.19
	FillingsUpdate:  mu: +0.294170424  nElectrons: 339.000000
	SubspaceRotationAdjust: set factor to 0.123
ElecMinimize: Iter:  22  F: -1819.927057242734691  |grad|_K:  1.432e-06  alpha:  2.613e-01  linmin: -6.348e-07  t[s]:  66413.60
	FillingsUpdate:  mu: +0.294250312  nElectrons: 339.000000
	SubspaceRotationAdjust: set factor to 0.144
ElecMinimize: Iter:  23  F: -1819.927094058149578  |grad|_K:  1.013e-06  alpha:  3.672e-01  linmin:  3.636e-06  t[s]:  66831.53
	FillingsUpdate:  mu: +0.294264147  nElectrons: 339.000000
	SubspaceRotationAdjust: set factor to 0.139
ElecMinimize: Iter:  24  F: -1819.927112524283302  |grad|_K:  8.193e-07  alpha:  3.682e-01  linmin:  3.748e-06  t[s]:  67248.99
	FillingsUpdate:  mu: +0.294198975  nElectrons: 339.000000
	SubspaceRotationAdjust: set factor to 0.108
ElecMinimize: Iter:  25  F: -1819.927120312842135  |grad|_K:  5.497e-07  alpha:  2.376e-01  linmin:  1.408e-07  t[s]:  67672.08
	FillingsUpdate:  mu: +0.294166830  nElectrons: 339.000000
	SubspaceRotationAdjust: set factor to 0.129
ElecMinimize: Iter:  26  F: -1819.927125161819959  |grad|_K:  3.520e-07  alpha:  3.284e-01  linmin:  1.725e-06  t[s]:  68094.31
	FillingsUpdate:  mu: +0.294165323  nElectrons: 339.000000
	SubspaceRotationAdjust: set factor to 0.141
ElecMinimize: Iter:  27  F: -1819.927127374299516  |grad|_K:  2.628e-07  alpha:  3.654e-01  linmin:  2.090e-06  t[s]:  68513.14
	FillingsUpdate:  mu: +0.294145508  nElectrons: 339.000000
	SubspaceRotationAdjust: set factor to 0.129
ElecMinimize: Iter:  28  F: -1819.927128434529777  |grad|_K:  2.140e-07  alpha:  3.141e-01  linmin: -9.656e-07  t[s]:  68933.40
	FillingsUpdate:  mu: +0.294130131  nElectrons: 339.000000
	SubspaceRotationAdjust: set factor to 0.133
ElecMinimize: Iter:  29  F: -1819.927129120645532  |grad|_K:  1.491e-07  alpha:  3.068e-01  linmin:  1.986e-06  t[s]:  69354.33
	FillingsUpdate:  mu: +0.294117077  nElectrons: 339.000000
	SubspaceRotationAdjust: set factor to 0.162
ElecMinimize: Iter:  30  F: -1819.927129567590100  |grad|_K:  1.155e-07  alpha:  4.115e-01  linmin:  1.646e-06  t[s]:  69774.86
	FillingsUpdate:  mu: +0.294112893  nElectrons: 339.000000
	SubspaceRotationAdjust: set factor to 0.176
ElecMinimize: Iter:  31  F: -1819.927129827327690  |grad|_K:  1.034e-07  alpha:  3.984e-01  linmin: -1.121e-05  t[s]:  70196.96
	FillingsUpdate:  mu: +0.294115293  nElectrons: 339.000000
	SubspaceRotationAdjust: set factor to 0.148
ElecMinimize: Iter:  32  F: -1819.927129972234070  |grad|_K:  9.246e-08  alpha:  2.773e-01  linmin:  1.762e-06  t[s]:  70614.18
	FillingsUpdate:  mu: +0.294113449  nElectrons: 339.000000
	SubspaceRotationAdjust: set factor to 0.144
ElecMinimize: Iter:  33  F: -1819.927130098370071  |grad|_K:  6.665e-08  alpha:  3.016e-01  linmin: -9.207e-06  t[s]:  71034.44
	FillingsUpdate:  mu: +0.294117579  nElectrons: 339.000000
	SubspaceRotationAdjust: set factor to 0.168
ElecMinimize: Iter:  34  F: -1819.927130188429373  |grad|_K:  5.232e-08  alpha:  4.143e-01  linmin: -1.177e-05  t[s]:  71460.12
	FillingsUpdate:  mu: +0.294121856  nElectrons: 339.000000
	SubspaceRotationAdjust: set factor to 0.185
ElecMinimize: Iter:  35  F: -1819.927130242939711  |grad|_K:  4.060e-08  alpha:  4.076e-01  linmin:  1.428e-06  t[s]:  71879.44
	FillingsUpdate:  mu: +0.294122542  nElectrons: 339.000000
	SubspaceRotationAdjust: set factor to 0.164
ElecMinimize: Iter:  36  F: -1819.927130268656811  |grad|_K:  3.665e-08  alpha:  3.189e-01  linmin:  1.954e-05  t[s]:  72301.26
	FillingsUpdate:  mu: +0.294125086  nElectrons: 339.000000
	SubspaceRotationAdjust: set factor to 0.129
ElecMinimize: Iter:  37  F: -1819.927130283046381  |grad|_K:  2.578e-08  alpha:  2.194e-01  linmin: -3.649e-05  t[s]:  72721.23
	FillingsUpdate:  mu: +0.294126772  nElectrons: 339.000000
	SubspaceRotationAdjust: set factor to 0.151
ElecMinimize: Iter:  38  F: -1819.927130294578092  |grad|_K:  1.800e-08  alpha:  3.482e-01  linmin: -5.946e-05  t[s]:  73144.23
	FillingsUpdate:  mu: +0.294127078  nElectrons: 339.000000
	SubspaceRotationAdjust: set factor to 0.177
ElecMinimize: Iter:  39  F: -1819.927130300659655  |grad|_K:  1.396e-08  alpha:  3.769e-01  linmin: -3.942e-05  t[s]:  73565.04
	FillingsUpdate:  mu: +0.294127090  nElectrons: 339.000000
	SubspaceRotationAdjust: set factor to 0.162
ElecMinimize: Iter:  40  F: -1819.927130303544118  |grad|_K:  1.333e-08  alpha:  3.110e-01  linmin: -1.768e-05  t[s]:  73988.33
ElecMinimize: Converged (|Delta F|<1.000000e-08 for 2 iters).
Setting wave functions to eigenvectors of Hamiltonian

# Ionic positions in lattice coordinates:
ion O   0.673326998439926   0.485716606940118   0.325399559906984 1
ion O   0.432025565237573   0.720080038453618   0.325626992993776 1
ion C   0.501782396003545   0.503238237430337   0.297706944023938 1
ion H   0.417580946327608   0.341753574157514   0.317371493123873 1
ion H   0.723779489611775   0.325144016691953   0.305019549708434 1
ion H   0.304296649339184   0.729506260979060   0.304999056042970 1
ion Pt   0.000000000000000   0.000000000000000  -0.166660000000000 0
ion Pt   0.000000000000000   0.500000000000000  -0.166660000000000 0
ion Pt   0.500000000000000   0.000000000000000  -0.166660000000000 0
ion Pt   0.500000000000000   0.500000000000000  -0.166660000000000 0
ion Pt   0.250000000000000   0.250000000000000  -0.083330000000000 0
ion Pt   0.250000000000000   0.750000000000000  -0.083330000000000 0
ion Pt   0.750000000000000   0.250000000000000  -0.083330000000000 0
ion Pt   0.750000000000000   0.750000000000000  -0.083330000000000 0
ion Pt   0.000012996227030  -0.000033198097972   0.000346236134378 1
ion Pt  -0.000163817226283   0.499905120434963   0.000659284558578 1
ion Pt   0.499853637251737   0.000069949261217   0.001044323167983 1
ion Pt   0.499962167150175   0.500183745867312   0.001887959837181 1
ion Pt   0.249579421115110   0.249988373503261   0.090324271404188 1
ion Pt   0.249682382097548   0.749884884460822   0.090201920983677 1
ion Pt   0.750398781598071   0.250006782989284   0.090285690505947 1
ion Pt   0.750489841238732   0.749844638195905   0.090152963239510 1
ion Pt  -0.000052135720470   0.000031223136441   0.169806886365126 1
ion Pt   0.000366109237622   0.500126456444763   0.169691707277110 1
ion Pt   0.500515784052578  -0.000660064229860   0.169052734911392 1
ion Pt   0.499852123453362   0.498270946659757   0.174272022569964 1


# Forces in Lattice coordinates:
force O   0.229401377474034  -0.109446707940341   0.000335885431586 1
force O  -0.247475316579273   0.123963000198990   0.004482418549905 1
force C  -0.124296312259559  -0.124516189935369   0.214232970115009 1
force H   0.000528022492942   0.016325704804096  -0.146033218149131 1
force H  -0.072681055703235   0.131860303474174   0.131455449929773 1
force H   0.198755872163700  -0.007511993395632   0.152879519828740 1
force Pt  -0.000201840359212   0.000298628334884  -0.250649913808693 0
force Pt   0.000921111777913  -0.000260330774872  -0.230915355532791 0
force Pt   0.001513821306724   0.001768669563329  -0.193864471990163 0
force Pt  -0.000347202201614  -0.001815273949602  -0.289014652032916 0
force Pt   0.023234998132332   0.009974910840644  -0.618412434988695 0
force Pt   0.021482259485248  -0.009920225590905  -0.626350403128506 0
force Pt  -0.026083581971574   0.008337766167861  -0.622662208425760 0
force Pt  -0.024038905177035  -0.008416367788023  -0.630014890131976 0
force Pt   0.001228397516112   0.000122020100446   0.263397531906863 1
force Pt   0.000400033837575  -0.000553274197177   0.257384875920580 1
force Pt  -0.000633895990865   0.001395513338995   0.258673672685425 1
force Pt  -0.000155704844029  -0.001134662625589   0.338066117035404 1
force Pt   0.008416016425431   0.006880966548921   0.235083813596942 1
force Pt   0.013572412742380  -0.011659544047938   0.235685406360300 1
force Pt  -0.004727457421778   0.010180368364535   0.229873044335749 1
force Pt  -0.009528027962259  -0.015987329899228   0.230855156247051 1
force Pt  -0.000206761021616  -0.000565923637148   0.383477206744188 1
force Pt   0.004878120292783   0.000797139980675   0.367877370890219 1
force Pt   0.007713010947961  -0.007356589278043   0.323089456004473 1
force Pt  -0.003433316217230  -0.013805481327608  -0.050806666533351 1

# Energy components:
   Eewald =     2063.7858544795840317
       EH =     3764.0341116998229154
     Eloc =    -7970.5853640778250337
      Enl =      -15.4597464297766916
      Exc =     -576.6748719412157698
 Exc_core =      324.9917802882534374
       KE =      590.2102731731400809
-------------------------------------
     Etot =    -1819.6979628080171096
       TS =        0.2291674955270683
-------------------------------------
        F =    -1819.9271303035441179

IonicMinimize: Iter:   3  F: -1819.927130303544118  |grad|_K:  6.870e-03  alpha:  6.891e-01  linmin: -3.242e-01  t[s]:  74054.70

#--- Lowdin population analysis ---
# oxidation-state O -0.372 -0.367
# oxidation-state C +0.295
# oxidation-state H +0.211 +0.426 +0.425
# oxidation-state Pt +0.071 +0.072 +0.071 +0.067 -0.046 -0.046 -0.046 -0.046 +0.012 +0.008 +0.009 -0.013 -0.050 -0.058 -0.057 -0.046 -0.005 -0.010 -0.009 -0.056


-------- Electronic minimization -----------
	FillingsUpdate:  mu: +0.496431142  nElectrons: 339.000000
ElecMinimize: Iter:   0  F: -1816.881085349639534  |grad|_K:  4.813e-04  alpha:  1.000e+00
	FillingsUpdate:  mu: +0.424856860  nElectrons: 339.000000
	SubspaceRotationAdjust: set factor to 0.0959
ElecMinimize: Iter:   1  F: -1819.026453564092890  |grad|_K:  3.035e-04  alpha:  2.421e-01  linmin:  3.482e-02  t[s]:  74795.17
	FillingsUpdate:  mu: +0.273018753  nElectrons: 339.000000
	SubspaceRotationAdjust: set factor to 0.165
ElecMinimize: Iter:   2  F: -1819.618151639120470  |grad|_K:  9.934e-05  alpha:  1.583e-01  linmin:  2.657e-04  t[s]:  75215.32
	FillingsUpdate:  mu: +0.304123539  nElectrons: 339.000000
	SubspaceRotationAdjust: set factor to 0.113
ElecMinimize: Iter:   3  F: -1819.755110343436172  |grad|_K:  6.860e-05  alpha:  2.871e-01  linmin:  2.252e-03  t[s]:  75639.19
	FillingsUpdate:  mu: +0.295581979  nElectrons: 339.000000
	SubspaceRotationAdjust: set factor to 0.111
ElecMinimize: Iter:   4  F: -1819.790188774249827  |grad|_K:  3.443e-05  alpha:  1.545e-01  linmin: -1.182e-04  t[s]:  76057.17
ElecMinimize: 	Predicted alpha/alphaT>3.000000, increasing alphaT to 4.635793e-01.
	FillingsUpdate:  mu: +0.303346660  nElectrons: 339.000000
	SubspaceRotationAdjust: set factor to 0.0842
ElecMinimize: Iter:   5  F: -1819.817407026839419  |grad|_K:  3.760e-05  alpha:  4.688e-01  linmin: -9.422e-05  t[s]:  76573.27
	FillingsUpdate:  mu: +0.295064250  nElectrons: 339.000000
	SubspaceRotationAdjust: set factor to 0.074
ElecMinimize: Iter:   6  F: -1819.838588344122400  |grad|_K:  3.326e-05  alpha:  2.984e-01  linmin: -3.455e-05  t[s]:  76998.16
	FillingsUpdate:  mu: +0.308542254  nElectrons: 339.000000
	SubspaceRotationAdjust: set factor to 0.0576
ElecMinimize: Iter:   7  F: -1819.861309679061833  |grad|_K:  3.265e-05  alpha:  4.218e-01  linmin:  2.319e-04  t[s]:  77414.79
	FillingsUpdate:  mu: +0.302390109  nElectrons: 339.000000
	SubspaceRotationAdjust: set factor to 0.0647
ElecMinimize: Iter:   8  F: -1819.878349506411269  |grad|_K:  2.773e-05  alpha:  3.362e-01  linmin: -7.762e-05  t[s]:  77835.15
	FillingsUpdate:  mu: +0.304429819  nElectrons: 339.000000
	SubspaceRotationAdjust: set factor to 0.0703
ElecMinimize: Iter:   9  F: -1819.894901763575945  |grad|_K:  2.685e-05  alpha:  4.344e-01  linmin: -1.307e-04  t[s]:  78257.87
	FillingsUpdate:  mu: +0.300597874  nElectrons: 339.000000
	SubspaceRotationAdjust: set factor to 0.0655
ElecMinimize: Iter:  10  F: -1819.909793323792883  |grad|_K:  2.492e-05  alpha:  4.156e-01  linmin:  1.408e-04  t[s]:  78678.24
	FillingsUpdate:  mu: +0.299360296  nElectrons: 339.000000
	SubspaceRotationAdjust: set factor to 0.0829
[...]
FluidMinimize: Iter:  38  F: -0.016578014655276  |grad|_K:  3.687e-05  alpha:  2.462e-03  linmin: -7.213e-04  cgtest:  6.597e-03  t[s]:  14816.90
FluidMinimize: Iter:  39  F: -0.016582060302413  |grad|_K:  3.418e-05  alpha:  3.458e-03  linmin:  1.711e-03  cgtest: -2.949e-02  t[s]:  14817.19
FluidMinimize: Iter:  40  F: -0.016588012673890  |grad|_K:  4.048e-05  alpha:  5.948e-03  linmin: -2.566e-03  cgtest:  4.452e-02  t[s]:  14817.50
FluidMinimize: Iter:  41  F: -0.016592938222469  |grad|_K:  3.653e-05  alpha:  3.301e-03  linmin: -9.978e-04  cgtest: -8.219e-02  t[s]:  14817.79
FluidMinimize: Iter:  42  F: -0.016596147977081  |grad|_K:  3.497e-05  alpha:  2.756e-03  linmin:  2.923e-04  cgtest:  5.259e-03  t[s]:  14818.09
FluidMinimize: Iter:  43  F: -0.016600594493582  |grad|_K:  3.048e-05  alpha:  4.193e-03  linmin: -2.195e-03  cgtest:  4.617e-02  t[s]:  14818.38
FluidMinimize: Iter:  44  F: -0.016605458442113  |grad|_K:  3.597e-05  alpha:  5.978e-03  linmin:  1.765e-03  cgtest: -5.554e-02  t[s]:  14818.69
FluidMinimize: Iter:  45  F: -0.016608795436608  |grad|_K:  4.045e-05  alpha:  3.095e-03  linmin:  1.160e-04  cgtest:  1.055e-01  t[s]:  14818.99
FluidMinimize: Iter:  46  F: -0.016612723266151  |grad|_K:  3.230e-05  alpha:  2.798e-03  linmin: -2.237e-04  cgtest:  6.066e-03  t[s]:  14819.32
FluidMinimize: Iter:  47  F: -0.016616257858695  |grad|_K:  3.198e-05  alpha:  3.976e-03  linmin:  2.762e-03  cgtest: -2.276e-02  t[s]:  14819.62
FluidMinimize: Iter:  48  F: -0.016621550147380  |grad|_K:  4.709e-05  alpha:  6.218e-03  linmin: -6.742e-05  cgtest:  8.886e-02  t[s]:  14819.93
FluidMinimize: Iter:  49  F: -0.016625513166066  |grad|_K:  3.092e-05  alpha:  2.088e-03  linmin:  3.735e-04  cgtest: -2.042e-02  t[s]:  14820.23
FluidMinimize: Iter:  50  F: -0.016628882053515  |grad|_K:  2.828e-05  alpha:  4.119e-03  linmin:  5.623e-04  cgtest:  2.306e-02  t[s]:  14820.54
FluidMinimize: Iter:  51  F: -0.016632707344962  |grad|_K:  4.601e-05  alpha:  5.554e-03  linmin: -1.557e-03  cgtest:  9.623e-03  t[s]:  14820.83
FluidMinimize: Iter:  52  F: -0.016638076619715  |grad|_K:  3.190e-05  alpha:  2.963e-03  linmin:  8.012e-04  cgtest: -1.568e-01  t[s]:  14821.14
FluidMinimize: Iter:  53  F: -0.016641687577028  |grad|_K:  3.450e-05  alpha:  4.176e-03  linmin:  6.343e-04  cgtest: -2.329e-02  t[s]:  14821.44
FluidMinimize: Iter:  54  F: -0.016645005946573  |grad|_K:  3.284e-05  alpha:  3.280e-03  linmin: -2.532e-04  cgtest: -2.162e-02  t[s]:  14821.74
FluidMinimize: Iter:  55  F: -0.016647741508891  |grad|_K:  2.802e-05  alpha:  2.943e-03  linmin: -3.099e-04  cgtest: -2.509e-02  t[s]:  14822.03
FluidMinimize: Iter:  56  F: -0.016650617704965  |grad|_K:  3.146e-05  alpha:  4.256e-03  linmin:  7.143e-04  cgtest:  4.344e-03  t[s]:  14822.34
FluidMinimize: Iter:  57  F: -0.016654023648769  |grad|_K:  3.585e-05  alpha:  4.039e-03  linmin:  1.556e-04  cgtest:  4.936e-02  t[s]:  14822.65
FluidMinimize: Iter:  58  F: -0.016656797953491  |grad|_K:  2.411e-05  alpha:  2.537e-03  linmin:  8.076e-05  cgtest:  1.623e-02  t[s]:  14822.96
FluidMinimize: Iter:  59  F: -0.016658807828873  |grad|_K:  2.775e-05  alpha:  4.043e-03  linmin:  8.500e-04  cgtest: -2.167e-02  t[s]:  14823.27
FluidMinimize: Iter:  60  F: -0.016660883619572  |grad|_K:  2.775e-05  alpha:  3.161e-03  linmin:  1.778e-04  cgtest:  6.114e-03  t[s]:  14823.57
FluidMinimize: Iter:  61  F: -0.016664226286732  |grad|_K:  2.848e-05  alpha:  5.040e-03  linmin: -5.959e-04  cgtest: -1.269e-02  t[s]:  14823.86
FluidMinimize: Iter:  62  F: -0.016666233889413  |grad|_K:  2.903e-05  alpha:  2.843e-03  linmin: -1.356e-04  cgtest: -2.285e-03  t[s]:  14824.16
FluidMinimize: Iter:  63  F: -0.016669030111439  |grad|_K:  2.704e-05  alpha:  3.865e-03  linmin:  9.669e-04  cgtest:  3.101e-02  t[s]:  14824.46
FluidMinimize: Iter:  64  F: -0.016671380838952  |grad|_K:  2.839e-05  alpha:  3.782e-03  linmin: -4.291e-04  cgtest:  4.442e-02  t[s]:  14824.76
FluidMinimize: Iter:  65  F: -0.016673678383864  |grad|_K:  3.087e-05  alpha:  3.299e-03  linmin:  1.653e-05  cgtest: -1.067e-02  t[s]:  14825.05
FluidMinimize: Iter:  66  F: -0.016677020546541  |grad|_K:  2.815e-05  alpha:  4.087e-03  linmin:  7.235e-04  cgtest: -1.781e-02  t[s]:  14825.36
FluidMinimize: Iter:  67  F: -0.016679109974766  |grad|_K:  2.593e-05  alpha:  3.098e-03  linmin: -8.545e-05  cgtest: -1.151e-03  t[s]:  14825.66
FluidMinimize: Iter:  68  F: -0.016681198506375  |grad|_K:  2.975e-05  alpha:  3.599e-03  linmin: -7.178e-04  cgtest: -2.183e-02  t[s]:  14825.98
FluidMinimize: Iter:  69  F: -0.016684562907994  |grad|_K:  2.765e-05  alpha:  4.384e-03  linmin:  5.459e-04  cgtest: -2.772e-02  t[s]:  14826.27
FluidMinimize: Iter:  70  F: -0.016686283793430  |grad|_K:  2.219e-05  alpha:  2.653e-03  linmin:  8.786e-05  cgtest:  2.980e-02  t[s]:  14826.58
FluidMinimize: Iter:  71  F: -0.016687556463527  |grad|_K:  2.324e-05  alpha:  3.009e-03  linmin: -3.798e-06  cgtest: -3.381e-03  t[s]:  14826.87
FluidMinimize: Iter:  72  F: -0.016690829623889  |grad|_K:  3.299e-05  alpha:  7.100e-03  linmin:  1.185e-03  cgtest: -1.634e-02  t[s]:  14827.19
FluidMinimize: Iter:  73  F: -0.016693202329529  |grad|_K:  2.533e-05  alpha:  2.549e-03  linmin: -5.842e-04  cgtest:  5.094e-02  t[s]:  14827.50
FluidMinimize: Iter:  74  F: -0.016694824357476  |grad|_K:  2.031e-05  alpha:  2.912e-03  linmin: -1.045e-03  cgtest:  3.503e-03  t[s]:  14827.81
FluidMinimize: Iter:  75  F: -0.016696475492617  |grad|_K:  3.047e-05  alpha:  4.613e-03  linmin:  6.064e-04  cgtest: -1.202e-02  t[s]:  14828.10
FluidMinimize: Iter:  76  F: -0.016699574126081  |grad|_K:  2.641e-05  alpha:  3.901e-03  linmin:  4.096e-04  cgtest:  6.205e-02  t[s]:  14828.41
FluidMinimize: Iter:  77  F: -0.016701738774348  |grad|_K:  2.489e-05  alpha:  3.624e-03  linmin:  1.042e-04  cgtest: -4.971e-03  t[s]:  14828.72
FluidMinimize: Iter:  78  F: -0.016703135833462  |grad|_K:  2.418e-05  alpha:  2.627e-03  linmin: -2.600e-05  cgtest: -7.235e-03  t[s]:  14829.03
FluidMinimize: Iter:  79  F: -0.016706360798949  |grad|_K:  2.964e-05  alpha:  6.433e-03  linmin:  6.220e-04  cgtest: -7.881e-03  t[s]:  14829.33
FluidMinimize: Iter:  80  F: -0.016708409986914  |grad|_K:  2.701e-05  alpha:  2.777e-03  linmin:  8.343e-04  cgtest:  7.968e-03  t[s]:  14829.63
FluidMinimize: Iter:  81  F: -0.016710499944803  |grad|_K:  2.645e-05  alpha:  3.354e-03  linmin: -9.164e-04  cgtest:  2.458e-02  t[s]:  14829.93
FluidMinimize: Iter:  82  F: -0.016712699122341  |grad|_K:  2.475e-05  alpha:  3.618e-03  linmin:  5.194e-04  cgtest: -3.289e-02  t[s]:  14830.24
FluidMinimize: Iter:  83  F: -0.016714488407223  |grad|_K:  2.601e-05  alpha:  3.421e-03  linmin: -1.685e-04  cgtest:  2.383e-02  t[s]:  14830.55
FluidMinimize: Iter:  84  F: -0.016716484371335  |grad|_K:  2.710e-05  alpha:  3.423e-03  linmin: -5.640e-04  cgtest: -2.525e-02  t[s]:  14830.85
FluidMinimize: Iter:  85  F: -0.016719371162353  |grad|_K:  2.424e-05  alpha:  4.537e-03  linmin:  5.782e-05  cgtest: -2.243e-02  t[s]:  14831.15
FluidMinimize: Iter:  86  F: -0.016720772631955  |grad|_K:  2.561e-05  alpha:  2.774e-03  linmin: -1.039e-05  cgtest:  1.593e-02  t[s]:  14831.45
FluidMinimize: Iter:  87  F: -0.016723053330419  |grad|_K:  2.409e-05  alpha:  4.046e-03  linmin:  1.745e-04  cgtest:  3.622e-03  t[s]:  14831.73
FluidMinimize: Iter:  88  F: -0.016725335215330  |grad|_K:  2.839e-05  alpha:  4.587e-03  linmin:  5.093e-04  cgtest: -5.331e-04  t[s]:  14832.04
FluidMinimize: Iter:  89  F: -0.016726969234038  |grad|_K:  2.233e-05  alpha:  2.353e-03  linmin: -3.226e-04  cgtest:  1.132e-02  t[s]:  14832.33
FluidMinimize: Iter:  90  F: -0.016729591711622  |grad|_K:  2.536e-05  alpha:  6.062e-03  linmin: -8.877e-04  cgtest: -1.883e-02  t[s]:  14832.63
FluidMinimize: Iter:  91  F: -0.016731154879407  |grad|_K:  2.633e-05  alpha:  2.766e-03  linmin: -6.359e-04  cgtest: -8.594e-03  t[s]:  14832.93
FluidMinimize: Iter:  92  F: -0.016733594703170  |grad|_K:  2.429e-05  alpha:  4.071e-03  linmin:  4.517e-04  cgtest:  1.513e-02  t[s]:  14833.23
FluidMinimize: Iter:  93  F: -0.016735672344409  |grad|_K:  2.634e-05  alpha:  4.116e-03  linmin: -4.631e-04  cgtest:  3.812e-02  t[s]:  14833.53
FluidMinimize: Iter:  94  F: -0.016737196863844  |grad|_K:  2.128e-05  alpha:  2.533e-03  linmin: -5.458e-05  cgtest:  9.822e-03  t[s]:  14833.83
FluidMinimize: Iter:  95  F: -0.016738678678268  |grad|_K:  2.665e-05  alpha:  3.835e-03  linmin:  1.492e-03  cgtest:  4.344e-03  t[s]:  14834.13
FluidMinimize: Iter:  96  F: -0.016742397729045  |grad|_K:  3.004e-05  alpha:  6.214e-03  linmin: -2.964e-04  cgtest:  9.787e-02  t[s]:  14834.42
FluidMinimize: Iter:  97  F: -0.016744340002013  |grad|_K:  2.535e-05  alpha:  2.495e-03  linmin:  2.676e-05  cgtest: -2.328e-02  t[s]:  14834.72
FluidMinimize: Iter:  98  F: -0.016745794396186  |grad|_K:  1.733e-05  alpha:  2.632e-03  linmin: -2.140e-04  cgtest:  8.670e-03  t[s]:  14835.02
FluidMinimize: 	Predicted alpha/alphaT>3.000000, increasing alphaT to 7.895265e-03.
FluidMinimize: Iter:  99  F: -0.016747998302188  |grad|_K:  3.082e-05  alpha:  8.506e-03  linmin: -1.152e-04  cgtest: -3.194e-03  t[s]:  14835.44
FluidMinimize: Iter: 100  F: -0.016749683142595  |grad|_K:  2.050e-05  alpha:  2.098e-03  linmin:  1.295e-03  cgtest: -4.432e-02  t[s]:  14835.75
FluidMinimize: None of the convergence criteria satisfied after 100 iterations.

Fluid minimization # 5 changed total free energy by -3.955663e-04 at t[s]:  14835.90

-------------------- Electronic Minimization # 5 ---------------------
	FillingsUpdate:  mu: -0.176667897  nElectrons: 339.000000
ElecMinimize: Iter:   0  F: -1819.952475102620838  |grad|_K:  8.787e-06  alpha:  1.000e+00
	FillingsUpdate:  mu: -0.174984949  nElectrons: 339.000000
	SubspaceRotationAdjust: set factor to 0.135
ElecMinimize: Iter:   1  F: -1819.952865858640507  |grad|_K:  1.234e-06  alpha:  1.045e-01  linmin:  3.678e-03  t[s]:  15437.56
ElecMinimize: 	Predicted alpha/alphaT>3.000000, increasing alphaT to 3.134206e-01.
	FillingsUpdate:  mu: -0.175983240  nElectrons: 339.000000
	SubspaceRotationAdjust: set factor to 0.147
ElecMinimize: Iter:   2  F: -1819.952889098050719  |grad|_K:  5.748e-07  alpha:  3.150e-01  linmin:  4.992e-06  t[s]:  15954.81
	FillingsUpdate:  mu: -0.175282400  nElectrons: 339.000000
	SubspaceRotationAdjust: set factor to 0.123
ElecMinimize: Iter:   3  F: -1819.952897015836697  |grad|_K:  4.981e-07  alpha:  4.905e-01  linmin: -1.682e-05  t[s]:  16377.75
	FillingsUpdate:  mu: -0.175281964  nElectrons: 339.000000
	SubspaceRotationAdjust: set factor to 0.0933
ElecMinimize: Iter:   4  F: -1819.952900125438873  |grad|_K:  4.148e-07  alpha:  2.565e-01  linmin:  1.170e-06  t[s]:  16797.40
	FillingsUpdate:  mu: -0.175096526  nElectrons: 339.000000
	SubspaceRotationAdjust: set factor to 0.111
ElecMinimize: Iter:   5  F: -1819.952903746391030  |grad|_K:  2.730e-07  alpha:  4.307e-01  linmin: -5.048e-06  t[s]:  17215.77
	FillingsUpdate:  mu: -0.174989604  nElectrons: 339.000000
	SubspaceRotationAdjust: set factor to 0.132
ElecMinimize: Iter:   6  F: -1819.952905770261850  |grad|_K:  2.483e-07  alpha:  5.559e-01  linmin:  1.005e-07  t[s]:  17640.88
	FillingsUpdate:  mu: -0.175054585  nElectrons: 339.000000
	SubspaceRotationAdjust: set factor to 0.11
ElecMinimize: Iter:   7  F: -1819.952906922848570  |grad|_K:  2.570e-07  alpha:  3.827e-01  linmin:  1.435e-07  t[s]:  18061.37
	FillingsUpdate:  mu: -0.174916816  nElectrons: 339.000000
	SubspaceRotationAdjust: set factor to 0.0987
ElecMinimize: Iter:   8  F: -1819.952908040657348  |grad|_K:  1.828e-07  alpha:  3.465e-01  linmin: -2.644e-07  t[s]:  18480.20
	FillingsUpdate:  mu: -0.174909594  nElectrons: 339.000000
	SubspaceRotationAdjust: set factor to 0.119
ElecMinimize: Iter:   9  F: -1819.952909036964229  |grad|_K:  1.362e-07  alpha:  6.103e-01  linmin: -1.271e-06  t[s]:  18901.38
	FillingsUpdate:  mu: -0.174930816  nElectrons: 339.000000
	SubspaceRotationAdjust: set factor to 0.124
ElecMinimize: Iter:  10  F: -1819.952909538765880  |grad|_K:  1.209e-07  alpha:  5.537e-01  linmin:  2.568e-07  t[s]:  19320.50
ElecMinimize: Converged (|Delta F|<1.054906e-06 for 2 iters).
Setting wave functions to eigenvectors of Hamiltonian

Electronic minimization # 5 changed total free energy by -6.009021e-05 at t[s]:  19339.58

---------------------- Fluid Minimization # 6 -----------------------
FluidMinimize: Iter:   0  F: -0.017974649286924  |grad|_K:  8.683e-05  alpha:  1.000e+00
FluidMinimize: 	Step increased F by 6.938894e-18, reducing alpha to 2.275090e-25.
FluidMinimize: 	Step increased F by 6.938894e-18, reducing alpha to 2.275090e-26.
FluidMinimize: 	Step increased F by 6.938894e-18, reducing alpha to 2.275090e-27.
FluidMinimize: 	Step increased F by 6.938894e-18, reducing alpha to 2.275090e-28.
FluidMinimize: 	Step increased F by 6.938894e-18, reducing alpha to 2.275090e-29.
FluidMinimize: 	Step increased F by 6.938894e-18, reducing alpha to 2.275090e-30.
FluidMinimize: 	Step failed to reduce F after 6 attempts. Quitting step.
FluidMinimize: 	Undoing step.
FluidMinimize: 	Step failed along negative gradient direction.
FluidMinimize: Probably at roundoff error limit. (Stopping)

Fluid minimization # 6 changed total free energy by -4.163336e-17 at t[s]:  19341.14

-------------------- Electronic Minimization # 6 ---------------------
	FillingsUpdate:  mu: -0.173061342  nElectrons: 339.000000
ElecMinimize: Iter:   0  F: -1819.952785100877691  |grad|_K:  4.502e-06  alpha:  1.000e+00
	FillingsUpdate:  mu: -0.174960173  nElectrons: 339.000000
	SubspaceRotationAdjust: set factor to 0.315
ElecMinimize: Iter:   1  F: -1819.952906469869731  |grad|_K:  3.999e-07  alpha:  1.226e-01  linmin:  1.574e-06  t[s]:  19936.98
	FillingsUpdate:  mu: -0.174993294  nElectrons: 339.000000
	SubspaceRotationAdjust: set factor to 0.384
ElecMinimize: Iter:   2  F: -1819.952909286051636  |grad|_K:  1.748e-07  alpha:  3.600e-01  linmin: -2.726e-04  t[s]:  20358.08
	FillingsUpdate:  mu: -0.174918002  nElectrons: 339.000000
	SubspaceRotationAdjust: set factor to 0.272
ElecMinimize: Iter:   3  F: -1819.952909894633422  |grad|_K:  1.746e-07  alpha:  4.072e-01  linmin: -9.418e-06  t[s]:  20773.80
ElecMinimize: Converged (|Delta F|<3.955663e-06 for 2 iters).
Setting wave functions to eigenvectors of Hamiltonian

Electronic minimization # 6 changed total free energy by -3.558675e-07 at t[s]:  20792.58

Fluid<-->Electron self-consistency loop converged to 1.000000e-05 hartrees after 6 minimization pairs at t[s]:  20792.58.

# Ionic positions in lattice coordinates:
ion O   0.674825324051252   0.487438192824579   0.329016696452159 1
ion O   0.430141106047518   0.724274967077241   0.329476377856208 1
ion C   0.500109908191668   0.502728078893799   0.303161268572362 1
ion H   0.413846294329893   0.339831852598550   0.316941171118823 1
ion H   0.723972689705969   0.332357653830874   0.305700116637884 1
ion H   0.306276538049686   0.731502214886860   0.306094558277255 1
ion Pt   0.000000000000000   0.000000000000000  -0.166660000000000 0
ion Pt   0.000000000000000   0.500000000000000  -0.166660000000000 0
ion Pt   0.500000000000000   0.000000000000000  -0.166660000000000 0
ion Pt   0.500000000000000   0.500000000000000  -0.166660000000000 0
ion Pt   0.250000000000000   0.250000000000000  -0.083330000000000 0
ion Pt   0.250000000000000   0.750000000000000  -0.083330000000000 0
ion Pt   0.750000000000000   0.250000000000000  -0.083330000000000 0
ion Pt   0.750000000000000   0.750000000000000  -0.083330000000000 0
ion Pt   0.000252557987611  -0.000282120976087   0.008324014138652 1
ion Pt  -0.000030993137047   0.499787333891245   0.008422002863857 1
ion Pt   0.499806154666692   0.000081470670066   0.009017430380538 1
ion Pt   0.499914167600921   0.499941340151692   0.009496542895475 1
ion Pt   0.247019686291956   0.247450510538000   0.100520621122634 1
ion Pt   0.247885247926027   0.750078632747277   0.100404650958847 1
ion Pt   0.753520959935444   0.248048958730701   0.100306138352077 1
ion Pt   0.753090741502579   0.749095205180617   0.100140523237964 1
ion Pt  -0.000109739563838  -0.000594840031414   0.184315914269609 1
ion Pt   0.001271397554817   0.500118430432682   0.183957327825764 1
ion Pt   0.501996302482690  -0.003779259590483   0.181322641845258 1
ion Pt   0.499618963422659   0.494579905811546   0.179233498293408 1


# Forces in Lattice coordinates:
force O  -0.061838629109606  -0.021896554498383   0.043403884599982 1
force O  -0.030438244134118  -0.053885008347851  -0.059185925433315 1
force C   0.037149381538254   0.058223659096821   0.079311568017185 1
force H   0.010000670424452   0.017973360657474   0.140900470480616 1
force H   0.019143765418626   0.010897470490279   0.168764464027210 1
force H   0.025935125658953   0.021730327334624   0.232570797489903 1
force Pt  -0.000661864651442   0.000336139088870   0.037516209794320 0
force Pt   0.000933828294974  -0.000291604653947   0.040466858997096 0
force Pt   0.002511748959289   0.001361237766768   0.080571973833298 0
force Pt  -0.000245562597123  -0.001468787466024   0.017233558817101 0
force Pt   0.014374192686578   0.005118728725138  -0.099746110985758 0
force Pt   0.014293504001351  -0.006172528442665  -0.103931371567145 0
force Pt  -0.014406785837233   0.003591828048353  -0.097086248574961 0
force Pt  -0.013574148641191  -0.004898349989042  -0.104392537992093 0
force Pt   0.001013710108269  -0.002825989022430  -0.066304847155616 1
force Pt   0.003912584514511  -0.001762610472223  -0.029575265700910 1
force Pt   0.001578796981194  -0.002956008472343   0.018856958591698 1
force Pt  -0.000002242931844  -0.002987688689531  -0.103546253221265 1
force Pt  -0.005875021910482   0.000998659137223  -0.029095939549132 1
force Pt  -0.016437845109250  -0.004400098395308  -0.037826102790534 1
force Pt   0.009359112811296  -0.002724250114198  -0.030789713367757 1
force Pt   0.014408062845720  -0.002249497287545  -0.031160198773689 1
force Pt  -0.001772057459146  -0.002901629253593   0.014008505311128 1
force Pt  -0.008870699537084  -0.007101057596871  -0.020543845668668 1
force Pt  -0.002341742231265  -0.006988111619648  -0.074566817084203 1
force Pt   0.012156361045368   0.012475559510501   0.038904902118601 1

# Energy components:
   A_diel =       -0.0180038901290092
   Eewald =     1881.5682484736676088
       EH =     3582.1633945014013989
     Eloc =    -7606.1159488977018555
      Enl =      -15.5759887653071996
      Exc =     -576.3604181211489959
 Exc_core =      324.9917519754465616
       KE =      589.6264415922623812
  MuShift =       -0.0000000000170861
-------------------------------------
     Etot =    -1819.7205231315258516
       TS =        0.2323867631075837
-------------------------------------
        F =    -1819.9529098946334216

IonicMinimize: Iter:   0  F: -1819.952909894633422  |grad|_K:  2.222e-03  t[s]:  20841.57
IonicMinimize: None of the convergence criteria satisfied after 0 iterations.

#--- Lowdin population analysis ---
# oxidation-state O -0.393 -0.377
# oxidation-state C +0.297
# oxidation-state H +0.240 +0.456 +0.461
# oxidation-state Pt +0.042 +0.043 +0.041 +0.038 -0.054 -0.054 -0.054 -0.054 +0.003 +0.002 +0.004 -0.018 -0.045 -0.051 -0.052 -0.041 +0.021 +0.009 +0.012 -0.051


Dumping '100_1-Solvated.ionpos' ... done
Dumping '100_1-Solvated.n' ... done
Dumping '100_1-Solvated.eigStats' ... 
	eMin: -2.130586 at state 0 ( [ +0.000000 +0.000000 +0.000000 ] spin 0 )
	HOMO: -0.174968 at state 0 ( [ +0.000000 +0.000000 +0.000000 ] spin 0 )
	mu  : -0.174918
	LUMO: -0.174715 at state 8 ( [ +0.500000 +0.250000 +0.000000 ] spin 0 )
	eMax: +0.368632 at state 7 ( [ +0.500000 +0.000000 +0.000000 ] spin 0 )
	HOMO-LUMO gap: +0.000253
	Optical gap  : +0.000298 at state 0 ( [ +0.000000 +0.000000 +0.000000 ] spin 0 )
Dumping '100_1-Solvated.Ecomponents' ... done
End date and time: Sat Jun  1 14:46:14 2019  (Duration: 0-5:48:21.46)
Done!
