
*************** JDFTx 1.4.2  ***************

Start date and time: Thu Jun 13 09:57:11 2019
Executable jdftx with command-line: -i water.in
Running on hosts (process indices):  dhcp-ccc-1825.eduroam.cornell.edu (0)
Divided in process groups (process indices):  0 (0)
Resource initialization completed at t[s]:      0.00
Run totals: 1 processes, 12 threads, 0 GPUs


Input parsed successfully to the following command list (including defaults):

basis kpoint-dependent
coords-type Cartesian
core-overlap-check vector
coulomb-interaction Periodic
davidson-band-ratio 1.1
dump End State Ecomponents
dump-name water.$VAR
elec-cutoff 20 100
elec-eigen-algo Davidson
elec-ex-corr gga-PBE
electronic-minimize  \
	dirUpdateScheme      FletcherReeves \
	linminMethod         DirUpdateRecommended \
	nIterations          100 \
	history              15 \
	knormThreshold       0 \
	energyDiffThreshold  1e-08 \
	nEnergyDiff          2 \
	alphaTstart          1 \
	alphaTmin            1e-10 \
	updateTestStepSize   yes \
	alphaTreduceFactor   0.1 \
	alphaTincreaseFactor 3 \
	nAlphaAdjustMax      3 \
	wolfeEnergy          0.0001 \
	wolfeGradient        0.9 \
	fdTest               no
exchange-regularization WignerSeitzTruncated
fluid NonlinearPCM 298.000000 1.013250
fluid-anion ClO4- 0.2 MeanFieldLJ \
	epsBulk 1 \
	pMol 0 \
	epsInf 1 \
	Pvap 0 \
	sigmaBulk 0 \
	Rvdw 4.55424 \
	Res 0
fluid-cation Na+ 0.2 MeanFieldLJ \
	epsBulk 1 \
	pMol 0 \
	epsInf 1 \
	Pvap 0 \
	sigmaBulk 0 \
	Rvdw 2.19208 \
	Res 0
fluid-ex-corr lda-TF lda-PZ
fluid-gummel-loop 10 1.000000e-05
fluid-minimize  \
	dirUpdateScheme      PolakRibiere \
	linminMethod         DirUpdateRecommended \
	nIterations          100 \
	history              15 \
	knormThreshold       1e-11 \
	energyDiffThreshold  0 \
	nEnergyDiff          2 \
	alphaTstart          1 \
	alphaTmin            1e-10 \
	updateTestStepSize   yes \
	alphaTreduceFactor   0.1 \
	alphaTincreaseFactor 3 \
	nAlphaAdjustMax      6 \
	wolfeEnergy          0.0001 \
	wolfeGradient        0.9 \
	fdTest               no
fluid-solvent H2O 55.338 ScalarEOS \
	epsBulk 78.4 \
	pMol 0.92466 \
	epsInf 1.77 \
	Pvap 1.06736e-10 \
	sigmaBulk 4.62e-05 \
	Rvdw 2.61727 \
	Res 1.42
forces-output-coords Positions
ion O   0.000000000000000   0.000000000000000  -0.670850000000000 0
ion H   0.000000000000000   1.455640919599405   0.473265642501406 1
ion H   0.000000000000000  -1.455640919599405   0.473265642501406 1
ion-species GBRV/$ID_pbe.uspp
ion-width Ecut
ionic-minimize  \
	dirUpdateScheme      L-BFGS \
	linminMethod         DirUpdateRecommended \
	nIterations          0 \
	history              15 \
	knormThreshold       0.0001 \
	energyDiffThreshold  1e-06 \
	nEnergyDiff          2 \
	alphaTstart          1 \
	alphaTmin            1e-10 \
	updateTestStepSize   yes \
	alphaTreduceFactor   0.1 \
	alphaTincreaseFactor 3 \
	nAlphaAdjustMax      3 \
	wolfeEnergy          0.0001 \
	wolfeGradient        0.9 \
	fdTest               no
kpoint   0.000000000000   0.000000000000   0.000000000000  1.00000000000000
kpoint-folding 1 1 1 
latt-move-scale 1 1 1
latt-scale 1 1 1 
lattice  \
	  15.030912420000000    0.000000000000000    0.000000000000000  \
	   0.000000000000000   10.628219469999999    0.000000000000000  \
	   0.000000000000000    0.000000000000000   31.884660289999999 
lattice-minimize  \
	dirUpdateScheme      L-BFGS \
	linminMethod         DirUpdateRecommended \
	nIterations          0 \
	history              15 \
	knormThreshold       0 \
	energyDiffThreshold  1e-06 \
	nEnergyDiff          2 \
	alphaTstart          1 \
	alphaTmin            1e-10 \
	updateTestStepSize   yes \
	alphaTreduceFactor   0.1 \
	alphaTincreaseFactor 3 \
	nAlphaAdjustMax      3 \
	wolfeEnergy          0.0001 \
	wolfeGradient        0.9 \
	fdTest               no
lcao-params -1 1e-06 0.001
pcm-variant GLSSA13
spintype no-spin
subspace-rotation-factor 1 yes
symmetries automatic
symmetry-threshold 0.0001



---------- Setting up symmetries ----------

Found 8 point-group symmetries of the bravais lattice
Found 4 space-group symmetries with basis
Applied RMS atom displacement 0 bohrs to make symmetries exact.

---------- Initializing the Grid ----------
R = 
[    15.0309          0          0  ]
[          0    10.6282          0  ]
[          0          0    31.8847  ]
unit cell volume = 5093.63
G =
[   0.418018          0          0  ]
[          0   0.591179          0  ]
[          0          0    0.19706  ]
Minimum fftbox size, Smin = [  68  48  144  ]
Chosen fftbox size, S = [  70  48  144  ]

---------- Initializing tighter grid for wavefunction operations ----------
R = 
[    15.0309          0          0  ]
[          0    10.6282          0  ]
[          0          0    31.8847  ]
unit cell volume = 5093.63
G =
[   0.418018          0          0  ]
[          0   0.591179          0  ]
[          0          0    0.19706  ]
Minimum fftbox size, Smin = [  64  44  132  ]
Chosen fftbox size, S = [  64  48  140  ]

---------- Exchange Correlation functional ----------
Initalized PBE GGA exchange.
Initalized PBE GGA correlation.

---------- Setting up pseudopotentials ----------
Width of ionic core gaussian charges (only for fluid interactions / plotting) set to 0.397384

Reading pseudopotential file '/Users/juanmendezvalderrama/Documents/JDFTX/build/pseudopotentials/GBRV/o_pbe.uspp':
  Title: O.  Created by USPP 7.3.6 on 3-2-2014
  Reference state energy: -15.894388.  6 valence electrons in orbitals:
    |200>  occupation: 2  eigenvalue: -0.878823
    |210>  occupation: 4  eigenvalue: -0.332131
  lMax: 2  lLocal: 2  QijEcut: 6
  5 projectors sampled on a log grid with 511 points:
    l: 0  eig: -0.878823  rCut: 1.25
    l: 0  eig: 0.000000  rCut: 1.25
    l: 1  eig: -0.332132  rCut: 1.25
    l: 1  eig: 0.000000  rCut: 1.25
    l: 2  eig: 1.000000  rCut: 1.25
  Partial core density with radius 0.7
  Transforming core density to a uniform radial grid of dG=0.02 with 1247 points.
  Transforming local potential to a uniform radial grid of dG=0.02 with 1247 points.
  Transforming nonlocal projectors to a uniform radial grid of dG=0.02 with 432 points.
  Transforming density augmentations to a uniform radial grid of dG=0.02 with 1247 points.
  Transforming atomic orbitals to a uniform radial grid of dG=0.02 with 432 points.
  Core radius for overlap checks: 1.25 bohrs.

Reading pseudopotential file '/Users/juanmendezvalderrama/Documents/JDFTX/build/pseudopotentials/GBRV/h_pbe.uspp':
  Title: H.  Created by USPP 7.3.6 on 2-4-15
  Reference state energy: -0.458849.  1 valence electrons in orbitals:
    |100>  occupation: 1  eigenvalue: -0.238595
  lMax: 0  lLocal: 1  QijEcut: 6
  2 projectors sampled on a log grid with 395 points:
    l: 0  eig: -0.238595  rCut: 1.2
    l: 0  eig: 1.000000  rCut: 1.2
  Transforming local potential to a uniform radial grid of dG=0.02 with 1247 points.
  Transforming nonlocal projectors to a uniform radial grid of dG=0.02 with 432 points.
  Transforming density augmentations to a uniform radial grid of dG=0.02 with 1247 points.
  Transforming atomic orbitals to a uniform radial grid of dG=0.02 with 432 points.
  Core radius for overlap checks: 1.20 bohrs.

Initialized 2 species with 3 total atoms.

Folded 1 k-points by 1x1x1 to 1 k-points.

---------- Setting up k-points, bands, fillings ----------
No reducable k-points. 
Computing the number of bands and number of electrons
Calculating initial fillings.
nElectrons:   8.000000   nBands: 4   nStates: 1

----- Setting up reduced wavefunction bases (one per k-point) -----
average nbasis = 21803.000 , ideal nbasis = 21760.388

---------- Setting up ewald sum ----------
Optimum gaussian width for ewald sums = 5.715652 bohr.
Real space sum over 1155 unit cells with max indices [  5  7  3  ]
Reciprocal space sum over 2079 terms with max indices [  5  4  10  ]

---------- Allocating electronic variables ----------
Initializing wave functions:  linear combination of atomic orbitals
O pseudo-atom occupations:   s ( 2 )  p ( 4 )
H pseudo-atom occupations:   s ( 1 )
	FillingsUpdate:  mu: -0.000000000  nElectrons: 8.000000
LCAOMinimize: Iter:   0  Etot: -17.0480188041185770  |grad|_K:  7.466e-02  alpha:  1.000e+00
	FillingsUpdate:  mu: -0.000000000  nElectrons: 8.000000
LCAOMinimize: Iter:   1  Etot: -17.1207201141570948  |grad|_K:  7.324e-03  alpha:  4.530e-01  linmin: -4.946e-01  cgtest:  7.931e-01  t[s]:      8.98
LCAOMinimize: Encountered beta<0, resetting CG.
	FillingsUpdate:  mu: -0.000000000  nElectrons: 8.000000
LCAOMinimize: Iter:   2  Etot: -17.1214468438446374  |grad|_K:  1.959e-03  alpha:  5.572e-01  linmin:  4.339e-02  cgtest: -1.402e-01  t[s]:      9.67
	FillingsUpdate:  mu: -0.000000000  nElectrons: 8.000000
LCAOMinimize: Iter:   3  Etot: -17.1215130008865444  |grad|_K:  4.210e-04  alpha:  7.351e-01  linmin:  1.650e-04  cgtest:  4.159e-01  t[s]:     10.35
LCAOMinimize: Encountered beta<0, resetting CG.
LCAOMinimize: None of the convergence criteria satisfied after 3 iterations.
----- createFluidSolver() ----- (Fluid-side solver setup)
   Initializing fluid molecule 'H2O'
     Initializing site 'O'
       Electron density: proportional to exp(-r/0.36935)*erfc((r-0.51523)/0.36823) with norm 6.826
       Charge density: gaussian nuclear width 0.478731 with net site charge 0.826
       Polarizability: cuspless exponential with width 0.32 and norm 3.73
       Hard sphere radius: 2.57003 bohrs
       Positions in reference frame:
         [ +0.000000 +0.000000 +0.000000 ]
     Initializing site 'H'
       Electron density: proportional to exp(-r/0.34641)*erfc((r-0)/0.390882) with norm 0.587
       Charge density: gaussian nuclear width 0.377945 with net site charge -0.413
       Polarizability: cuspless exponential with width 0.39 and norm 3.3
       Positions in reference frame:
         [ +0.000000 -1.441945 +1.122523 ]
         [ +0.000000 +1.441945 +1.122523 ]
     Net charge: 0   dipole magnitude: 0.927204
     Initializing spherical shell mfKernel with radius 2.61727 Bohr
     deltaS corrections:
       site 'O': -7.54299
       site 'H': -6.83917
   Initializing fluid molecule 'Na+'
     Initializing site 'Na'
       Electron density: proportional to exp(-r/0.19682)*erfc((r-0.71491)/0.41314) with norm 8.1383
       Charge density: gaussian nuclear width 0.365347 with net site charge -1
       Hard sphere radius: 1.86327 bohrs
       Positions in reference frame:
         [ +0.000000 +0.000000 +0.000000 ]
     Net charge: -1   dipole magnitude: 0
     Initializing gaussian mfKernel with width: 1.55004 Bohr
     deltaS corrections:
       site 'Na': -22.3555
   Initializing fluid molecule 'ClO4-'
     Initializing site 'Cl'
       Electron density: proportional to exp(-r/0.48793)*erfc((r-0.93371)/0.45657) with norm 6.2308
       Charge density: gaussian nuclear width 0.55117 with net site charge -0.7692
       Hard sphere radius: 4.42196 bohrs
       Positions in reference frame:
         [ +0.000000 +0.000000 +0.000000 ]
     Initializing site 'O'
       Electron density: proportional to exp(-r/0.36013)*erfc((r-0.51636)/0.37371) with norm 6.4423
       Charge density: gaussian nuclear width 0.478731 with net site charge 0.4423
       Positions in reference frame:
         [ +1.705286 +1.705286 +1.705286 ]
         [ +1.705286 -1.705286 -1.705286 ]
         [ -1.705286 +1.705286 -1.705286 ]
         [ -1.705286 -1.705286 +1.705286 ]
     Net charge: 1   dipole magnitude: 0
     Initializing gaussian mfKernel with width: 3.22033 Bohr
     deltaS corrections:
       site 'Cl': -87.0374
       site 'O': 12.0842

Correction to mu due to finite nuclear width = -0.00155834
   Cavity determined by nc: 0.001 and sigma: 0.6
   Effective cavity tension: 9.5e-06 Eh/bohr^2 to account for cavitation and dispersion.
   Nonlinear dielectric with epsBulk = 78.4 and epsInf = 1.77 with density Nmol = 0.0049383 of dipoles pMol = 0.92466 at T = 298 K.
   Nonlinear ions with screening length = 12.843 bohrs and Z = 1 at T = 298 K.


---- Citations for features of the code used in this run ----

   Software package:
      R. Sundararaman, K. Letchworth-Weaver, K.A. Schwarz, D. Gunceler, Y. Ozhabes and T.A. Arias, 'JDFTx: software for joint density-functional theory', SoftwareX 6, 278 (2017)

   gga-PBE exchange-correlation functional:
      J.P. Perdew, K. Burke and M. Ernzerhof, Phys. Rev. Lett. 77, 3865 (1996)

   Pseudopotentials:
      KF Garrity, JW Bennett, KM Rabe and D Vanderbilt, Comput. Mater. Sci. 81, 446 (2014)

   Linear/nonlinear dielectric/ionic fluid model with effective cavity tension:
      D. Gunceler, K. Letchworth-Weaver, R. Sundararaman, K.A. Schwarz and T.A. Arias, Modelling Simul. Mater. Sci. Eng. 21, 074005 (2013)

   Total energy minimization:
      T.A. Arias, M.C. Payne and J.D. Joannopoulos, Phys. Rev. Lett. 69, 1077 (1992)

This list may not be complete. Please suggest additional citations or
report any other bugs at https://github.com/shankar1729/jdftx/issues

Initialization completed successfully at t[s]:     11.41

Fluid solver invoked on fresh (partially random / LCAO) wavefunctions
Running a vacuum solve first:

-------- Initial electronic minimization -----------
ElecMinimize: Iter:   0  Etot: -17.121513000886537  |grad|_K:  1.530e-03  alpha:  1.000e+00
ElecMinimize: Iter:   1  Etot: -17.242371671355031  |grad|_K:  5.239e-04  alpha:  5.891e-01  linmin: -1.578e-02  t[s]:     12.61
ElecMinimize: Iter:   2  Etot: -17.259161626296510  |grad|_K:  3.111e-04  alpha:  6.951e-01  linmin: -6.884e-03  t[s]:     13.29
ElecMinimize: Iter:   3  Etot: -17.264833556647261  |grad|_K:  1.580e-04  alpha:  6.675e-01  linmin:  3.480e-03  t[s]:     13.98
ElecMinimize: Iter:   4  Etot: -17.266478843472179  |grad|_K:  7.858e-05  alpha:  7.577e-01  linmin: -2.067e-03  t[s]:     14.66
ElecMinimize: Iter:   5  Etot: -17.266992495177554  |grad|_K:  4.799e-05  alpha:  9.532e-01  linmin:  3.248e-03  t[s]:     15.34
ElecMinimize: Iter:   6  Etot: -17.267167704013531  |grad|_K:  2.961e-05  alpha:  8.751e-01  linmin: -8.212e-04  t[s]:     16.03
ElecMinimize: Iter:   7  Etot: -17.267224507222739  |grad|_K:  1.592e-05  alpha:  7.418e-01  linmin:  3.225e-04  t[s]:     16.71
ElecMinimize: Iter:   8  Etot: -17.267239548763115  |grad|_K:  8.024e-06  alpha:  6.807e-01  linmin: -2.984e-04  t[s]:     17.39
ElecMinimize: Iter:   9  Etot: -17.267243331705409  |grad|_K:  3.895e-06  alpha:  6.735e-01  linmin:  7.011e-05  t[s]:     18.07
ElecMinimize: Iter:  10  Etot: -17.267244329333543  |grad|_K:  1.894e-06  alpha:  7.542e-01  linmin: -1.213e-04  t[s]:     18.75
ElecMinimize: Iter:  11  Etot: -17.267244598299690  |grad|_K:  1.008e-06  alpha:  8.599e-01  linmin:  2.782e-05  t[s]:     19.43
ElecMinimize: Iter:  12  Etot: -17.267244666976627  |grad|_K:  5.543e-07  alpha:  7.749e-01  linmin: -1.723e-05  t[s]:     20.11
ElecMinimize: Iter:  13  Etot: -17.267244685780518  |grad|_K:  3.145e-07  alpha:  7.018e-01  linmin:  1.163e-05  t[s]:     20.79
ElecMinimize: Iter:  14  Etot: -17.267244691778746  |grad|_K:  1.562e-07  alpha:  6.951e-01  linmin: -2.003e-05  t[s]:     21.47
ElecMinimize: Iter:  15  Etot: -17.267244693371030  |grad|_K:  7.437e-08  alpha:  7.479e-01  linmin: -3.495e-05  t[s]:     22.14
ElecMinimize: Converged (|Delta Etot|<1.000000e-08 for 2 iters).
Setting wave functions to eigenvectors of Hamiltonian
Vacuum energy after initial minimize, Etot = -17.267244693371030

Initializing state of NonlinearPCM using a similar LinearPCM: 	Linear fluid (dielectric constant: 78.4, screening length: 12.843 Bohr) occupying 0.960016 of unit cell:	Completed after 28 iterations at t[s]:     24.26

-------- Electronic minimization -----------
ElecMinimize: Iter:   0  Etot: -17.274752271536670  |grad|_K:  1.005e-04  alpha:  1.000e+00
ElecMinimize: Iter:   1  Etot: -17.275495778512202  |grad|_K:  5.461e-05  alpha:  8.442e-01  linmin: -2.204e-03  t[s]:     26.09
ElecMinimize: Iter:   2  Etot: -17.275664442026251  |grad|_K:  3.053e-05  alpha:  6.473e-01  linmin:  1.435e-04  t[s]:     27.08
ElecMinimize: Iter:   3  Etot: -17.275721232115732  |grad|_K:  1.768e-05  alpha:  6.987e-01  linmin: -4.776e-04  t[s]:     28.05
ElecMinimize: Iter:   4  Etot: -17.275744949941178  |grad|_K:  9.693e-06  alpha:  8.696e-01  linmin:  4.578e-04  t[s]:     29.03
ElecMinimize: Iter:   5  Etot: -17.275752611891924  |grad|_K:  5.416e-06  alpha:  9.354e-01  linmin: -1.481e-04  t[s]:     30.02
ElecMinimize: Iter:   6  Etot: -17.275754603866993  |grad|_K:  2.741e-06  alpha:  7.785e-01  linmin:  2.605e-05  t[s]:     30.97
ElecMinimize: Iter:   7  Etot: -17.275755104572433  |grad|_K:  1.275e-06  alpha:  7.641e-01  linmin: -9.513e-06  t[s]:     31.96
ElecMinimize: Iter:   8  Etot: -17.275755225561007  |grad|_K:  6.215e-07  alpha:  8.528e-01  linmin: -2.054e-05  t[s]:     32.92
ElecMinimize: Iter:   9  Etot: -17.275755256855227  |grad|_K:  3.256e-07  alpha:  9.288e-01  linmin:  1.159e-05  t[s]:     33.92
ElecMinimize: Iter:  10  Etot: -17.275755264217231  |grad|_K:  1.736e-07  alpha:  7.964e-01  linmin:  1.166e-06  t[s]:     34.88
ElecMinimize: Iter:  11  Etot: -17.275755265954608  |grad|_K:  9.091e-08  alpha:  6.608e-01  linmin: -3.968e-05  t[s]:     35.84
ElecMinimize: Converged (|Delta Etot|<1.000000e-08 for 2 iters).
Setting wave functions to eigenvectors of Hamiltonian

-------- Electron <-> Fluid self-consistency loop -----------

---------------------- Fluid Minimization # 1 -----------------------
FluidMinimize: Iter:   0  Etot: -0.009556059160618  |grad|_K:  1.008e-04  alpha:  1.000e+00
FluidMinimize: Iter:   1  Etot: -0.009556059964412  |grad|_K:  1.008e-04  alpha:  4.085e-08  linmin: -1.062e-01  cgtest:  1.000e+00  t[s]:     36.23
FluidMinimize: Encountered beta<0, resetting CG.
FluidMinimize: 	Predicted alpha/alphaT>3.000000, increasing alphaT to 1.225385e-07.
FluidMinimize: 	Predicted alpha/alphaT>3.000000, increasing alphaT to 3.676154e-07.
FluidMinimize: 	Predicted alpha/alphaT>3.000000, increasing alphaT to 1.102846e-06.
FluidMinimize: 	Predicted alpha/alphaT>3.000000, increasing alphaT to 3.308538e-06.
FluidMinimize: 	Predicted alpha/alphaT>3.000000, increasing alphaT to 9.925615e-06.
FluidMinimize: 	Predicted alpha/alphaT>3.000000, increasing alphaT to 2.977685e-05.
FluidMinimize: Iter:   2  Etot: -0.010300106885756  |grad|_K:  9.979e-05  alpha:  8.021e-02  linmin:  2.152e-02  cgtest: -1.744e-01  t[s]:     36.97
FluidMinimize: Iter:   3  Etot: -0.011171256727117  |grad|_K:  7.876e-05  alpha:  1.120e-01  linmin: -1.826e-02  cgtest:  7.140e-01  t[s]:     37.20
FluidMinimize: Iter:   4  Etot: -0.011342654652055  |grad|_K:  3.169e-05  alpha:  4.290e-02  linmin:  3.508e-02  cgtest: -4.529e-01  t[s]:     37.43
FluidMinimize: 	Predicted alpha/alphaT>3.000000, increasing alphaT to 1.287109e-01.
FluidMinimize: Iter:   5  Etot: -0.011484511100183  |grad|_K:  2.878e-05  alpha:  2.260e-01  linmin: -1.281e-02  cgtest:  5.490e-01  t[s]:     37.76
FluidMinimize: Iter:   6  Etot: -0.011557365813839  |grad|_K:  2.246e-05  alpha:  7.831e-02  linmin: -1.798e-02  cgtest:  1.144e-01  t[s]:     38.00
FluidMinimize: Iter:   7  Etot: -0.011629975302064  |grad|_K:  1.797e-05  alpha:  1.347e-01  linmin: -8.069e-04  cgtest: -1.106e-01  t[s]:     38.25
FluidMinimize: Iter:   8  Etot: -0.011662200584396  |grad|_K:  2.140e-05  alpha:  1.036e-01  linmin: -8.239e-04  cgtest: -2.370e-03  t[s]:     38.49
FluidMinimize: 	Predicted alpha/alphaT>3.000000, increasing alphaT to 3.109346e-01.
FluidMinimize: Iter:   9  Etot: -0.011817710550735  |grad|_K:  2.394e-05  alpha:  3.491e-01  linmin:  5.271e-03  cgtest: -2.149e-01  t[s]:     38.85
FluidMinimize: Iter:  10  Etot: -0.011877088202445  |grad|_K:  3.295e-05  alpha:  1.427e-01  linmin:  1.857e-02  cgtest: -2.372e-01  t[s]:     39.09
FluidMinimize: Iter:  11  Etot: -0.011987246378283  |grad|_K:  2.285e-05  alpha:  8.044e-02  linmin: -6.476e-02  cgtest:  4.738e-01  t[s]:     39.32
FluidMinimize: Iter:  12  Etot: -0.012035250870678  |grad|_K:  6.934e-05  alpha:  1.022e-01  linmin:  4.624e-02  cgtest: -1.273e-01  t[s]:     39.55
FluidMinimize: Iter:  13  Etot: -0.012035255961036  |grad|_K:  6.935e-05  alpha:  1.796e-06  linmin: -2.296e-02  cgtest:  1.000e+00  t[s]:     39.78
FluidMinimize: 	Predicted alpha/alphaT>3.000000, increasing alphaT to 5.387859e-06.
FluidMinimize: 	Predicted alpha/alphaT>3.000000, increasing alphaT to 1.616358e-05.
FluidMinimize: 	Predicted alpha/alphaT>3.000000, increasing alphaT to 4.849073e-05.
FluidMinimize: 	Predicted alpha/alphaT>3.000000, increasing alphaT to 1.454722e-04.
FluidMinimize: 	Predicted alpha/alphaT>3.000000, increasing alphaT to 4.364166e-04.
FluidMinimize: 	Predicted alpha/alphaT>3.000000, increasing alphaT to 1.309250e-03.
FluidMinimize: Iter:  14  Etot: -0.012076475842070  |grad|_K:  2.450e-05  alpha:  7.670e-03  linmin: -7.024e-02  cgtest:  6.448e-01  t[s]:     40.54
FluidMinimize: Encountered beta<0, resetting CG.
FluidMinimize: 	Predicted alpha/alphaT>3.000000, increasing alphaT to 2.300861e-02.
FluidMinimize: 	Predicted alpha/alphaT>3.000000, increasing alphaT to 6.902583e-02.
FluidMinimize: Iter:  15  Etot: -0.012125059260190  |grad|_K:  4.325e-05  alpha:  8.153e-02  linmin: -1.235e-02  cgtest:  6.120e-02  t[s]:     40.98
FluidMinimize: Iter:  16  Etot: -0.012134912493150  |grad|_K:  4.321e-05  alpha:  2.455e-03  linmin: -1.907e-01  cgtest:  9.988e-01  t[s]:     41.20
FluidMinimize: 	Predicted alpha/alphaT>3.000000, increasing alphaT to 7.366442e-03.
FluidMinimize: 	Predicted alpha/alphaT>3.000000, increasing alphaT to 2.209933e-02.
FluidMinimize: Iter:  17  Etot: -0.012172440935447  |grad|_K:  3.358e-05  alpha:  1.950e-02  linmin:  2.501e-02  cgtest: -2.186e-01  t[s]:     41.64
FluidMinimize: 	Predicted alpha/alphaT>3.000000, increasing alphaT to 5.850772e-02.
FluidMinimize: Iter:  18  Etot: -0.012210673093120  |grad|_K:  7.194e-05  alpha:  3.476e-02  linmin: -6.876e-03  cgtest:  7.802e-01  t[s]:     41.97
FluidMinimize: Iter:  19  Etot: -0.012299426494177  |grad|_K:  5.540e-05  alpha:  2.174e-02  linmin: -1.399e-03  cgtest: -4.439e-01  t[s]:     42.20
FluidMinimize: Iter:  20  Etot: -0.012344902141595  |grad|_K:  4.339e-05  alpha:  9.995e-03  linmin: -7.070e-02  cgtest:  4.774e-01  t[s]:     42.43
FluidMinimize: 	Predicted alpha/alphaT>3.000000, increasing alphaT to 2.998578e-02.
FluidMinimize: Iter:  21  Etot: -0.012451509411614  |grad|_K:  7.227e-05  alpha:  5.817e-02  linmin:  1.449e-02  cgtest: -5.713e-02  t[s]:     42.75
FluidMinimize: Iter:  22  Etot: -0.012460575606770  |grad|_K:  4.801e-05  alpha:  1.106e-02  linmin:  3.347e-02  cgtest:  3.723e-02  t[s]:     42.98
FluidMinimize: Iter:  23  Etot: -0.012481189744365  |grad|_K:  1.085e-04  alpha:  2.700e-02  linmin:  6.441e-02  cgtest: -1.484e-01  t[s]:     43.21
FluidMinimize: Iter:  24  Etot: -0.012483839000616  |grad|_K:  1.119e-04  alpha:  4.638e-04  linmin: -1.448e-02  cgtest:  9.995e-01  t[s]:     43.45
FluidMinimize: 	Predicted alpha/alphaT>3.000000, increasing alphaT to 1.391440e-03.
FluidMinimize: Iter:  25  Etot: -0.012527297661720  |grad|_K:  3.871e-05  alpha:  3.264e-03  linmin: -4.157e-02  cgtest:  4.439e-01  t[s]:     43.79
FluidMinimize: Encountered beta<0, resetting CG.
FluidMinimize: 	Predicted alpha/alphaT>3.000000, increasing alphaT to 9.792297e-03.
FluidMinimize: 	Predicted alpha/alphaT>3.000000, increasing alphaT to 2.937689e-02.
FluidMinimize: Iter:  26  Etot: -0.012582554388310  |grad|_K:  4.634e-05  alpha:  3.879e-02  linmin:  3.456e-03  cgtest: -5.018e-02  t[s]:     44.25
FluidMinimize: Iter:  27  Etot: -0.012599597915634  |grad|_K:  4.425e-05  alpha:  1.307e-02  linmin:  2.138e-02  cgtest: -2.380e-01  t[s]:     44.49
FluidMinimize: Iter:  28  Etot: -0.012615060407609  |grad|_K:  3.151e-05  alpha:  1.051e-02  linmin:  2.842e-03  cgtest:  4.326e-01  t[s]:     44.73
FluidMinimize: 	Predicted alpha/alphaT>3.000000, increasing alphaT to 3.153205e-02.
FluidMinimize: Iter:  29  Etot: -0.012659017324648  |grad|_K:  8.769e-05  alpha:  5.606e-02  linmin:  2.045e-02  cgtest: -7.843e-02  t[s]:     45.08
FluidMinimize: Iter:  30  Etot: -0.012663769999686  |grad|_K:  8.408e-05  alpha:  5.822e-04  linmin: -2.735e-02  cgtest:  9.988e-01  t[s]:     45.31
FluidMinimize: Encountered beta<0, resetting CG.
FluidMinimize: 	Predicted alpha/alphaT>3.000000, increasing alphaT to 1.746482e-03.
FluidMinimize: Iter:  31  Etot: -0.012689135092738  |grad|_K:  2.048e-05  alpha:  3.536e-03  linmin: -2.578e-02  cgtest:  3.912e-01  t[s]:     45.65
FluidMinimize: Encountered beta<0, resetting CG.
FluidMinimize: 	Predicted alpha/alphaT>3.000000, increasing alphaT to 1.060732e-02.
FluidMinimize: 	Predicted alpha/alphaT>3.000000, increasing alphaT to 3.182196e-02.
FluidMinimize: Iter:  32  Etot: -0.012710992830270  |grad|_K:  2.772e-05  alpha:  5.258e-02  linmin: -9.900e-03  cgtest:  3.433e-02  t[s]:     46.11
FluidMinimize: Iter:  33  Etot: -0.012725377737586  |grad|_K:  4.137e-05  alpha:  1.380e-02  linmin: -4.073e-02  cgtest:  2.690e-01  t[s]:     46.34
FluidMinimize: Iter:  34  Etot: -0.012778498522941  |grad|_K:  3.639e-05  alpha:  2.459e-02  linmin: -2.089e-02  cgtest: -2.361e-01  t[s]:     46.58
FluidMinimize: Iter:  35  Etot: -0.012809511471315  |grad|_K:  3.731e-05  alpha:  2.021e-02  linmin:  1.369e-02  cgtest:  4.540e-01  t[s]:     46.81
FluidMinimize: Iter:  36  Etot: -0.012821192140724  |grad|_K:  3.265e-05  alpha:  1.063e-02  linmin:  6.603e-03  cgtest:  1.606e-02  t[s]:     47.04
FluidMinimize: Iter:  37  Etot: -0.012838363849263  |grad|_K:  5.746e-05  alpha:  2.093e-02  linmin:  4.276e-02  cgtest: -1.959e-01  t[s]:     47.27
FluidMinimize: Iter:  38  Etot: -0.012850961046213  |grad|_K:  6.610e-05  alpha:  5.822e-03  linmin: -5.616e-03  cgtest:  9.219e-01  t[s]:     47.49
FluidMinimize: Iter:  39  Etot: -0.012868673445944  |grad|_K:  3.079e-05  alpha:  4.328e-03  linmin: -4.959e-03  cgtest: -4.389e-02  t[s]:     47.72
FluidMinimize: 	Predicted alpha/alphaT>3.000000, increasing alphaT to 1.298547e-02.
FluidMinimize: Iter:  40  Etot: -0.012884501260638  |grad|_K:  3.000e-05  alpha:  1.747e-02  linmin:  1.226e-02  cgtest: -3.217e-01  t[s]:     48.07
FluidMinimize: Iter:  41  Etot: -0.012905777427428  |grad|_K:  3.125e-05  alpha:  2.597e-02  linmin: -5.832e-02  cgtest:  3.976e-01  t[s]:     48.32
FluidMinimize: Iter:  42  Etot: -0.012924351329372  |grad|_K:  3.309e-05  alpha:  1.602e-02  linmin: -5.261e-03  cgtest: -1.407e-01  t[s]:     48.55
FluidMinimize: Iter:  43  Etot: -0.012938843062814  |grad|_K:  3.245e-05  alpha:  1.359e-02  linmin: -8.634e-03  cgtest:  3.518e-02  t[s]:     48.78
FluidMinimize: Iter:  44  Etot: -0.012964091800626  |grad|_K:  4.414e-05  alpha:  2.597e-02  linmin:  3.593e-02  cgtest: -2.706e-01  t[s]:     49.01
FluidMinimize: Iter:  45  Etot: -0.012974074009899  |grad|_K:  3.068e-05  alpha:  8.147e-03  linmin:  9.363e-03  cgtest:  4.566e-01  t[s]:     49.24
FluidMinimize: 	Predicted alpha/alphaT>3.000000, increasing alphaT to 2.444039e-02.
FluidMinimize: Iter:  46  Etot: -0.012998000063892  |grad|_K:  2.180e-05  alpha:  2.673e-02  linmin: -5.774e-03  cgtest:  4.374e-03  t[s]:     49.58
FluidMinimize: Iter:  47  Etot: -0.013002177811696  |grad|_K:  2.429e-05  alpha:  8.046e-03  linmin: -6.116e-03  cgtest:  1.310e-01  t[s]:     49.81
FluidMinimize: 	Predicted alpha/alphaT>3.000000, increasing alphaT to 2.413666e-02.
FluidMinimize: Iter:  48  Etot: -0.013027869975184  |grad|_K:  2.790e-05  alpha:  4.124e-02  linmin: -7.080e-03  cgtest:  1.435e-01  t[s]:     50.14
FluidMinimize: Iter:  49  Etot: -0.013036093260304  |grad|_K:  4.031e-05  alpha:  1.366e-02  linmin:  3.323e-02  cgtest: -2.096e-01  t[s]:     50.37
FluidMinimize: Iter:  50  Etot: -0.013050045856077  |grad|_K:  3.370e-05  alpha:  1.044e-02  linmin:  4.131e-03  cgtest:  4.231e-01  t[s]:     50.60
FluidMinimize: Iter:  51  Etot: -0.013064119558888  |grad|_K:  3.938e-05  alpha:  1.325e-02  linmin:  1.358e-02  cgtest: -4.366e-02  t[s]:     50.83
FluidMinimize: Iter:  52  Etot: -0.013072216663130  |grad|_K:  2.067e-05  alpha:  6.501e-03  linmin:  9.229e-03  cgtest:  1.447e-01  t[s]:     51.06
FluidMinimize: 	Predicted alpha/alphaT>3.000000, increasing alphaT to 1.950212e-02.
FluidMinimize: Iter:  53  Etot: -0.013080978032346  |grad|_K:  2.823e-05  alpha:  2.169e-02  linmin: -9.161e-03  cgtest:  1.960e-02  t[s]:     51.39
FluidMinimize: Converged (|Delta Etot|<1.000000e-05 for 2 iters).

Fluid minimization # 1 changed total free energy by -3.524919e-03 at t[s]:     51.51

-------------------- Electronic Minimization # 1 ---------------------
ElecMinimize: Iter:   0  Etot: -17.279280184826312  |grad|_K:  8.434e-05  alpha:  1.000e+00
ElecMinimize: Iter:   1  Etot: -17.279796580065721  |grad|_K:  4.485e-05  alpha:  8.325e-01  linmin: -3.822e-04  t[s]:     53.07
ElecMinimize: Iter:   2  Etot: -17.279919419948065  |grad|_K:  2.578e-05  alpha:  6.998e-01  linmin:  4.373e-04  t[s]:     54.05
ElecMinimize: Iter:   3  Etot: -17.279958128084356  |grad|_K:  1.489e-05  alpha:  6.679e-01  linmin: -2.997e-04  t[s]:     55.05
ElecMinimize: Iter:   4  Etot: -17.279974332526926  |grad|_K:  8.050e-06  alpha:  8.376e-01  linmin:  4.676e-04  t[s]:     56.04
ElecMinimize: Iter:   5  Etot: -17.279979690673553  |grad|_K:  4.600e-06  alpha:  9.484e-01  linmin: -9.343e-05  t[s]:     57.03
ElecMinimize: Iter:   6  Etot: -17.279981150579783  |grad|_K:  2.380e-06  alpha:  7.910e-01  linmin:  1.449e-05  t[s]:     58.01
ElecMinimize: Converged (|Delta Etot|<1.000000e-05 for 2 iters).
Setting wave functions to eigenvectors of Hamiltonian

Electronic minimization # 1 changed total free energy by -7.009658e-04 at t[s]:     58.01

---------------------- Fluid Minimization # 2 -----------------------
FluidMinimize: Iter:   0  Etot: -0.016206056681770  |grad|_K:  4.684e-05  alpha:  1.000e+00
FluidMinimize: Iter:   1  Etot: -0.016207006057860  |grad|_K:  4.545e-05  alpha:  2.270e-04  linmin: -9.550e-02  cgtest:  9.993e-01  t[s]:     58.40
FluidMinimize: Encountered beta<0, resetting CG.
FluidMinimize: 	Predicted alpha/alphaT>3.000000, increasing alphaT to 6.810735e-04.
FluidMinimize: 	Predicted alpha/alphaT>3.000000, increasing alphaT to 2.043220e-03.
FluidMinimize: 	Predicted alpha/alphaT>3.000000, increasing alphaT to 6.129661e-03.
FluidMinimize: Iter:   2  Etot: -0.016224857549647  |grad|_K:  5.377e-05  alpha:  8.723e-03  linmin: -7.023e-03  cgtest:  5.314e-02  t[s]:     58.96
FluidMinimize: Iter:   3  Etot: -0.016248926455378  |grad|_K:  4.768e-05  alpha:  8.020e-03  linmin:  3.854e-03  cgtest: -2.046e-01  t[s]:     59.21
FluidMinimize: Iter:   4  Etot: -0.016269763774908  |grad|_K:  2.785e-05  alpha:  1.021e-02  linmin:  2.462e-04  cgtest:  6.863e-01  t[s]:     59.44
FluidMinimize: Encountered beta<0, resetting CG.
FluidMinimize: Iter:   5  Etot: -0.016275356781990  |grad|_K:  3.261e-05  alpha:  7.592e-03  linmin: -8.786e-04  cgtest:  7.374e-03  t[s]:     59.68
FluidMinimize: Iter:   6  Etot: -0.016284510519797  |grad|_K:  3.112e-05  alpha:  8.886e-03  linmin:  2.270e-03  cgtest: -8.202e-02  t[s]:     59.93
FluidMinimize: Converged (|Delta Etot|<1.000000e-05 for 2 iters).

Fluid minimization # 2 changed total free energy by -7.845384e-05 at t[s]:     60.05

-------------------- Electronic Minimization # 2 ---------------------
ElecMinimize: Iter:   0  Etot: -17.280059604417808  |grad|_K:  7.460e-06  alpha:  1.000e+00
ElecMinimize: Iter:   1  Etot: -17.280063471153980  |grad|_K:  4.346e-06  alpha:  7.961e-01  linmin:  8.408e-04  t[s]:     61.61
ElecMinimize: Iter:   2  Etot: -17.280064755126205  |grad|_K:  2.158e-06  alpha:  7.800e-01  linmin: -5.577e-05  t[s]:     62.60
ElecMinimize: Converged (|Delta Etot|<1.000000e-05 for 2 iters).
Setting wave functions to eigenvectors of Hamiltonian

Electronic minimization # 2 changed total free energy by -5.150708e-06 at t[s]:     62.60

---------------------- Fluid Minimization # 3 -----------------------
FluidMinimize: Iter:   0  Etot: -0.016546393423797  |grad|_K:  3.676e-05  alpha:  1.000e+00
FluidMinimize: 	Step increased Etot by 5.008617e-04, reducing alpha to 6.864600e-03.
FluidMinimize: Iter:   1  Etot: -0.016549870497506  |grad|_K:  4.316e-05  alpha:  6.865e-03  linmin:  1.229e-01  cgtest: -4.585e-01  t[s]:     63.12
FluidMinimize: Iter:   2  Etot: -0.016550530987774  |grad|_K:  4.380e-05  alpha:  1.445e-03  linmin: -5.020e-04  cgtest:  9.760e-01  t[s]:     63.36
FluidMinimize: Iter:   3  Etot: -0.016556146247215  |grad|_K:  1.930e-05  alpha:  3.098e-03  linmin:  8.600e-03  cgtest: -1.101e-01  t[s]:     63.59
FluidMinimize: 	Predicted alpha/alphaT>3.000000, increasing alphaT to 9.294224e-03.
FluidMinimize: Iter:   4  Etot: -0.016561330358230  |grad|_K:  2.515e-05  alpha:  1.528e-02  linmin:  8.469e-04  cgtest:  1.833e-01  t[s]:     63.93
FluidMinimize: Iter:   5  Etot: -0.016570057923440  |grad|_K:  4.986e-05  alpha:  1.435e-02  linmin: -4.130e-03  cgtest: -4.904e-02  t[s]:     64.16
FluidMinimize: Iter:   6  Etot: -0.016602775536595  |grad|_K:  3.678e-05  alpha:  1.302e-02  linmin:  1.369e-02  cgtest: -3.137e-01  t[s]:     64.39
FluidMinimize: Iter:   7  Etot: -0.016615967429038  |grad|_K:  2.786e-05  alpha:  1.143e-02  linmin:  1.613e-03  cgtest:  5.462e-01  t[s]:     64.62
FluidMinimize: Iter:   8  Etot: -0.016619044928776  |grad|_K:  2.234e-05  alpha:  4.336e-03  linmin:  4.668e-03  cgtest: -5.915e-02  t[s]:     64.85
FluidMinimize: 	Predicted alpha/alphaT>3.000000, increasing alphaT to 1.300824e-02.
FluidMinimize: Iter:   9  Etot: -0.016628137193995  |grad|_K:  2.493e-05  alpha:  1.931e-02  linmin: -3.660e-03  cgtest: -1.463e-02  t[s]:     65.18
FluidMinimize: Iter:  10  Etot: -0.016637933037018  |grad|_K:  2.331e-05  alpha:  1.592e-02  linmin: -1.543e-03  cgtest: -1.107e-01  t[s]:     65.40
FluidMinimize: Iter:  11  Etot: -0.016645314079355  |grad|_K:  4.349e-05  alpha:  1.372e-02  linmin:  1.895e-03  cgtest:  4.624e-02  t[s]:     65.63
FluidMinimize: Iter:  12  Etot: -0.016659540595768  |grad|_K:  2.310e-05  alpha:  8.411e-03  linmin:  6.724e-04  cgtest:  4.181e-01  t[s]:     65.87
FluidMinimize: Iter:  13  Etot: -0.016665536358804  |grad|_K:  3.143e-05  alpha:  1.148e-02  linmin: -5.640e-03  cgtest:  2.460e-02  t[s]:     66.09
FluidMinimize: Iter:  14  Etot: -0.016670605760537  |grad|_K:  1.484e-05  alpha:  4.513e-03  linmin: -1.902e-02  cgtest:  1.198e-01  t[s]:     66.33
FluidMinimize: 	Predicted alpha/alphaT>3.000000, increasing alphaT to 1.353810e-02.
FluidMinimize: Iter:  15  Etot: -0.016676883763273  |grad|_K:  2.273e-05  alpha:  2.834e-02  linmin:  9.187e-03  cgtest: -9.258e-02  t[s]:     66.65
FluidMinimize: Iter:  16  Etot: -0.016680805346032  |grad|_K:  2.667e-05  alpha:  9.321e-03  linmin:  8.208e-03  cgtest:  9.760e-02  t[s]:     66.89
FluidMinimize: Iter:  17  Etot: -0.016684489556448  |grad|_K:  1.784e-05  alpha:  5.488e-03  linmin: -1.434e-03  cgtest:  1.224e-01  t[s]:     67.12
FluidMinimize: 	Predicted alpha/alphaT>3.000000, increasing alphaT to 1.646309e-02.
FluidMinimize: Iter:  18  Etot: -0.016692546848514  |grad|_K:  1.849e-05  alpha:  2.566e-02  linmin: -3.854e-03  cgtest: -2.834e-02  t[s]:     67.47
FluidMinimize: Iter:  19  Etot: -0.016699603099967  |grad|_K:  3.180e-05  alpha:  2.044e-02  linmin:  1.549e-03  cgtest: -5.354e-02  t[s]:     67.71
FluidMinimize: Iter:  20  Etot: -0.016705630121360  |grad|_K:  3.264e-05  alpha:  7.322e-03  linmin:  1.009e-02  cgtest: -3.540e-02  t[s]:     67.97
FluidMinimize: Iter:  21  Etot: -0.016715740882556  |grad|_K:  2.162e-05  alpha:  1.129e-02  linmin:  7.844e-03  cgtest:  1.258e-01  t[s]:     68.20
FluidMinimize: Iter:  22  Etot: -0.016723552599168  |grad|_K:  3.264e-05  alpha:  1.802e-02  linmin: -6.112e-03  cgtest:  6.854e-02  t[s]:     68.43
FluidMinimize: Iter:  23  Etot: -0.016730310931494  |grad|_K:  2.364e-05  alpha:  5.303e-03  linmin: -1.925e-02  cgtest:  1.185e-01  t[s]:     68.66
FluidMinimize: Iter:  24  Etot: -0.016735719452021  |grad|_K:  1.660e-05  alpha:  8.672e-03  linmin: -5.267e-03  cgtest: -1.700e-01  t[s]:     68.89
FluidMinimize: Iter:  25  Etot: -0.016741318407524  |grad|_K:  3.639e-05  alpha:  2.085e-02  linmin:  8.411e-03  cgtest:  5.133e-02  t[s]:     69.12
FluidMinimize: Iter:  26  Etot: -0.016747404546498  |grad|_K:  2.183e-05  alpha:  5.484e-03  linmin:  3.180e-03  cgtest:  5.456e-01  t[s]:     69.37
FluidMinimize: Iter:  27  Etot: -0.016751785943112  |grad|_K:  2.169e-05  alpha:  9.370e-03  linmin: -4.816e-03  cgtest:  3.802e-02  t[s]:     69.62
FluidMinimize: Iter:  28  Etot: -0.016754010050749  |grad|_K:  1.585e-05  alpha:  4.490e-03  linmin: -3.085e-03  cgtest: -1.044e-02  t[s]:     69.86
FluidMinimize: Iter:  29  Etot: -0.016757238676904  |grad|_K:  1.212e-05  alpha:  1.268e-02  linmin: -2.724e-03  cgtest:  5.641e-02  t[s]:     70.09
FluidMinimize: Iter:  30  Etot: -0.016759200614239  |grad|_K:  1.960e-05  alpha:  1.337e-02  linmin: -3.302e-03  cgtest: -5.608e-03  t[s]:     70.34
FluidMinimize: Iter:  31  Etot: -0.016761342692644  |grad|_K:  1.180e-05  alpha:  5.416e-03  linmin: -1.942e-03  cgtest: -6.886e-02  t[s]:     70.59
FluidMinimize: 	Predicted alpha/alphaT>3.000000, increasing alphaT to 1.624704e-02.
FluidMinimize: 	Predicted alpha/alphaT>3.000000, increasing alphaT to 4.874111e-02.
FluidMinimize: Iter:  32  Etot: -0.016773031810313  |grad|_K:  1.684e-05  alpha:  8.379e-02  linmin: -3.111e-03  cgtest:  1.988e-01  t[s]:     71.05
FluidMinimize: Iter:  33  Etot: -0.016777505477964  |grad|_K:  2.952e-05  alpha:  1.855e-02  linmin:  2.103e-02  cgtest: -9.816e-02  t[s]:     71.30
FluidMinimize: Iter:  34  Etot: -0.016780416110430  |grad|_K:  1.828e-05  alpha:  3.204e-03  linmin: -3.553e-02  cgtest:  6.396e-01  t[s]:     71.53
FluidMinimize: Encountered beta<0, resetting CG.
FluidMinimize: Iter:  35  Etot: -0.016783072795493  |grad|_K:  1.747e-05  alpha:  8.396e-03  linmin:  7.742e-03  cgtest: -4.160e-02  t[s]:     71.78
FluidMinimize: Iter:  36  Etot: -0.016784320248341  |grad|_K:  1.360e-05  alpha:  4.537e-03  linmin:  1.699e-03  cgtest:  6.912e-02  t[s]:     72.03
FluidMinimize: 	Predicted alpha/alphaT>3.000000, increasing alphaT to 1.361184e-02.
FluidMinimize: Iter:  37  Etot: -0.016787104769001  |grad|_K:  1.367e-05  alpha:  1.570e-02  linmin: -3.072e-04  cgtest: -7.584e-02  t[s]:     72.37
FluidMinimize: Iter:  38  Etot: -0.016788099963930  |grad|_K:  1.373e-05  alpha:  5.194e-03  linmin: -5.308e-03  cgtest:  6.228e-02  t[s]:     72.62
FluidMinimize: Iter:  39  Etot: -0.016790561326396  |grad|_K:  9.337e-06  alpha:  1.285e-02  linmin: -3.609e-03  cgtest: -8.952e-02  t[s]:     72.85
FluidMinimize: Iter:  40  Etot: -0.016793396386882  |grad|_K:  2.388e-05  alpha:  3.333e-02  linmin:  2.840e-03  cgtest:  2.976e-03  t[s]:     73.08
FluidMinimize: Iter:  41  Etot: -0.016795527813557  |grad|_K:  1.321e-05  alpha:  3.510e-03  linmin: -1.617e-02  cgtest:  3.569e-01  t[s]:     73.32
FluidMinimize: Iter:  42  Etot: -0.016797358882690  |grad|_K:  1.073e-05  alpha:  1.028e-02  linmin: -4.851e-03  cgtest: -4.726e-02  t[s]:     73.57
FluidMinimize: Iter:  43  Etot: -0.016798350999337  |grad|_K:  1.672e-05  alpha:  8.672e-03  linmin:  7.987e-04  cgtest: -7.466e-03  t[s]:     73.81
FluidMinimize: Iter:  44  Etot: -0.016801285240496  |grad|_K:  1.238e-05  alpha:  1.082e-02  linmin: -5.245e-03  cgtest:  1.936e-01  t[s]:     74.04
FluidMinimize: Iter:  45  Etot: -0.016802485297958  |grad|_K:  1.730e-05  alpha:  7.956e-03  linmin: -4.524e-04  cgtest: -3.511e-02  t[s]:     74.27
FluidMinimize: Iter:  46  Etot: -0.016805366205832  |grad|_K:  1.204e-05  alpha:  1.003e-02  linmin:  1.211e-02  cgtest: -7.567e-02  t[s]:     74.50
FluidMinimize: Iter:  47  Etot: -0.016807175125279  |grad|_K:  2.243e-05  alpha:  1.353e-02  linmin:  1.877e-03  cgtest:  4.858e-02  t[s]:     74.73
FluidMinimize: Iter:  48  Etot: -0.016810093330374  |grad|_K:  1.873e-05  alpha:  6.037e-03  linmin: -4.982e-04  cgtest:  7.815e-05  t[s]:     74.96
FluidMinimize: 	Predicted alpha/alphaT>3.000000, increasing alphaT to 1.810966e-02.
FluidMinimize: Iter:  49  Etot: -0.016816507507298  |grad|_K:  1.694e-05  alpha:  1.886e-02  linmin:  3.178e-03  cgtest: -2.940e-02  t[s]:     75.32
FluidMinimize: Iter:  50  Etot: -0.016819027753656  |grad|_K:  2.428e-05  alpha:  9.205e-03  linmin: -4.419e-04  cgtest:  1.724e-02  t[s]:     75.56
FluidMinimize: Iter:  51  Etot: -0.016822485693680  |grad|_K:  1.431e-05  alpha:  6.021e-03  linmin: -1.095e-04  cgtest: -1.042e-01  t[s]:     75.80
FluidMinimize: 	Predicted alpha/alphaT>3.000000, increasing alphaT to 1.806420e-02.
FluidMinimize: Iter:  52  Etot: -0.016830006826183  |grad|_K:  2.954e-05  alpha:  3.961e-02  linmin:  8.072e-03  cgtest: -2.790e-02  t[s]:     76.14
FluidMinimize: Iter:  53  Etot: -0.016832441834132  |grad|_K:  1.692e-05  alpha:  3.684e-03  linmin:  1.236e-02  cgtest:  1.827e-02  t[s]:     76.39
FluidMinimize: Iter:  54  Etot: -0.016834866385505  |grad|_K:  1.463e-05  alpha:  1.009e-02  linmin:  3.446e-03  cgtest:  1.237e-01  t[s]:     76.63
FluidMinimize: Iter:  55  Etot: -0.016836163630277  |grad|_K:  1.798e-05  alpha:  6.446e-03  linmin: -5.922e-05  cgtest:  1.351e-02  t[s]:     76.86
FluidMinimize: Iter:  56  Etot: -0.016839927764175  |grad|_K:  1.355e-05  alpha:  1.183e-02  linmin: -3.754e-03  cgtest: -7.184e-02  t[s]:     77.10
FluidMinimize: Iter:  57  Etot: -0.016841863146635  |grad|_K:  1.908e-05  alpha:  1.045e-02  linmin:  1.595e-03  cgtest: -5.322e-02  t[s]:     77.34
FluidMinimize: Iter:  58  Etot: -0.016843770159147  |grad|_K:  1.243e-05  alpha:  5.570e-03  linmin:  4.752e-04  cgtest:  9.512e-02  t[s]:     77.58
FluidMinimize: 	Predicted alpha/alphaT>3.000000, increasing alphaT to 1.671117e-02.
FluidMinimize: Iter:  59  Etot: -0.016848460868017  |grad|_K:  2.740e-05  alpha:  3.090e-02  linmin: -4.529e-03  cgtest: -1.756e-02  t[s]:     77.93
FluidMinimize: Iter:  60  Etot: -0.016851184686441  |grad|_K:  1.027e-05  alpha:  2.856e-03  linmin: -3.698e-02  cgtest:  5.491e-01  t[s]:     78.17
FluidMinimize: Encountered beta<0, resetting CG.
FluidMinimize: 	Predicted alpha/alphaT>3.000000, increasing alphaT to 8.567238e-03.
FluidMinimize: Iter:  61  Etot: -0.016852561582730  |grad|_K:  1.804e-05  alpha:  1.350e-02  linmin:  3.933e-04  cgtest: -1.554e-03  t[s]:     78.53
FluidMinimize: Iter:  62  Etot: -0.016854155238167  |grad|_K:  1.261e-05  alpha:  5.206e-03  linmin:  3.486e-03  cgtest: -1.820e-02  t[s]:     78.76
FluidMinimize: Iter:  63  Etot: -0.016855945405595  |grad|_K:  1.223e-05  alpha:  1.150e-02  linmin: -1.151e-02  cgtest:  5.018e-02  t[s]:     78.99
FluidMinimize: Iter:  64  Etot: -0.016856687977340  |grad|_K:  1.122e-05  alpha:  4.723e-03  linmin: -2.982e-03  cgtest: -3.737e-02  t[s]:     79.22
FluidMinimize: 	Predicted alpha/alphaT>3.000000, increasing alphaT to 1.416892e-02.
FluidMinimize: Iter:  65  Etot: -0.016858548765004  |grad|_K:  8.251e-06  alpha:  1.490e-02  linmin: -2.594e-04  cgtest:  1.854e-01  t[s]:     79.55
FluidMinimize: Iter:  66  Etot: -0.016859554627591  |grad|_K:  1.686e-05  alpha:  1.525e-02  linmin: -1.435e-03  cgtest:  2.536e-03  t[s]:     79.78
FluidMinimize: Iter:  67  Etot: -0.016861487267560  |grad|_K:  1.323e-05  alpha:  6.877e-03  linmin: -1.504e-03  cgtest: -3.585e-02  t[s]:     80.01
FluidMinimize: Iter:  68  Etot: -0.016863978493996  |grad|_K:  9.655e-06  alpha:  1.451e-02  linmin: -1.721e-03  cgtest:  7.393e-03  t[s]:     80.25
FluidMinimize: Iter:  69  Etot: -0.016865133698347  |grad|_K:  1.694e-05  alpha:  1.274e-02  linmin: -1.543e-03  cgtest: -1.389e-02  t[s]:     80.47
FluidMinimize: Iter:  70  Etot: -0.016866885881422  |grad|_K:  8.254e-06  alpha:  5.932e-03  linmin: -7.989e-03  cgtest:  2.620e-02  t[s]:     80.72
FluidMinimize: 	Predicted alpha/alphaT>3.000000, increasing alphaT to 1.779586e-02.
FluidMinimize: Iter:  71  Etot: -0.016868375402768  |grad|_K:  1.523e-05  alpha:  2.182e-02  linmin: -2.208e-03  cgtest: -5.479e-03  t[s]:     81.07
FluidMinimize: Iter:  72  Etot: -0.016869189301998  |grad|_K:  9.304e-06  alpha:  3.771e-03  linmin:  8.823e-03  cgtest: -9.429e-02  t[s]:     81.30
FluidMinimize: 	Predicted alpha/alphaT>3.000000, increasing alphaT to 1.131298e-02.
FluidMinimize: Iter:  73  Etot: -0.016871027390011  |grad|_K:  1.006e-05  alpha:  2.298e-02  linmin: -3.097e-03  cgtest:  2.309e-01  t[s]:     81.63
FluidMinimize: Iter:  74  Etot: -0.016871836850583  |grad|_K:  1.181e-05  alpha:  7.902e-03  linmin: -3.387e-03  cgtest:  9.967e-04  t[s]:     81.86
FluidMinimize: Iter:  75  Etot: -0.016872535073710  |grad|_K:  7.543e-06  alpha:  5.110e-03  linmin:  1.455e-04  cgtest: -5.318e-02  t[s]:     82.10
FluidMinimize: 	Predicted alpha/alphaT>3.000000, increasing alphaT to 1.532911e-02.
FluidMinimize: Iter:  76  Etot: -0.016873623158628  |grad|_K:  1.588e-05  alpha:  1.975e-02  linmin: -6.224e-04  cgtest:  1.206e-02  t[s]:     82.44
FluidMinimize: Iter:  77  Etot: -0.016874776206601  |grad|_K:  8.271e-06  alpha:  4.293e-03  linmin: -1.052e-02  cgtest:  1.789e-01  t[s]:     82.67
FluidMinimize: 	Predicted alpha/alphaT>3.000000, increasing alphaT to 1.287999e-02.
FluidMinimize: Iter:  78  Etot: -0.016876058063757  |grad|_K:  1.463e-05  alpha:  1.827e-02  linmin: -2.412e-03  cgtest: -4.132e-02  t[s]:     83.03
FluidMinimize: Iter:  79  Etot: -0.016876872394921  |grad|_K:  8.359e-06  alpha:  3.562e-03  linmin: -1.386e-02  cgtest:  1.641e-01  t[s]:     83.27
FluidMinimize: 	Predicted alpha/alphaT>3.000000, increasing alphaT to 1.068715e-02.
FluidMinimize: Iter:  80  Etot: -0.016878116568687  |grad|_K:  1.282e-05  alpha:  1.747e-02  linmin:  1.941e-03  cgtest: -8.165e-02  t[s]:     83.60
FluidMinimize: Iter:  81  Etot: -0.016878822710521  |grad|_K:  1.044e-05  alpha:  4.816e-03  linmin:  1.262e-02  cgtest: -3.017e-02  t[s]:     83.83
FluidMinimize: Iter:  82  Etot: -0.016879971858781  |grad|_K:  1.071e-05  alpha:  1.147e-02  linmin: -2.553e-03  cgtest:  1.104e-01  t[s]:     84.06
FluidMinimize: Iter:  83  Etot: -0.016880665783057  |grad|_K:  1.389e-05  alpha:  6.085e-03  linmin: -1.230e-03  cgtest: -5.657e-03  t[s]:     84.29
FluidMinimize: Iter:  84  Etot: -0.016883159595736  |grad|_K:  9.774e-06  alpha:  1.310e-02  linmin: -4.488e-03  cgtest:  8.973e-02  t[s]:     84.55
FluidMinimize: Iter:  85  Etot: -0.016884161579381  |grad|_K:  1.532e-05  alpha:  1.064e-02  linmin: -1.351e-04  cgtest: -2.266e-02  t[s]:     84.79
FluidMinimize: Iter:  86  Etot: -0.016885388730162  |grad|_K:  1.037e-05  alpha:  5.348e-03  linmin: -1.225e-03  cgtest:  3.803e-02  t[s]:     85.04
FluidMinimize: Iter:  87  Etot: -0.016886866172591  |grad|_K:  1.092e-05  alpha:  1.417e-02  linmin:  1.551e-03  cgtest:  7.311e-03  t[s]:     85.27
FluidMinimize: Iter:  88  Etot: -0.016887336626089  |grad|_K:  1.068e-05  alpha:  4.270e-03  linmin:  6.272e-03  cgtest: -2.263e-02  t[s]:     85.50
FluidMinimize: 	Predicted alpha/alphaT>3.000000, increasing alphaT to 1.280962e-02.
FluidMinimize: Iter:  89  Etot: -0.016889585682603  |grad|_K:  1.289e-05  alpha:  2.089e-02  linmin: -2.401e-03  cgtest:  7.455e-02  t[s]:     85.84
FluidMinimize: Iter:  90  Etot: -0.016890121493053  |grad|_K:  8.212e-06  alpha:  3.077e-03  linmin: -8.685e-03  cgtest:  9.828e-02  t[s]:     86.09
FluidMinimize: 	Predicted alpha/alphaT>3.000000, increasing alphaT to 9.230783e-03.
FluidMinimize: Iter:  91  Etot: -0.016891861340586  |grad|_K:  1.188e-05  alpha:  2.528e-02  linmin:  2.031e-04  cgtest: -9.371e-02  t[s]:     86.45
FluidMinimize: Iter:  92  Etot: -0.016892342218054  |grad|_K:  1.010e-05  alpha:  3.813e-03  linmin:  1.530e-02  cgtest: -5.553e-02  t[s]:     86.69
FluidMinimize: 	Predicted alpha/alphaT>3.000000, increasing alphaT to 1.144047e-02.
FluidMinimize: Iter:  93  Etot: -0.016894317416035  |grad|_K:  1.235e-05  alpha:  2.134e-02  linmin: -3.843e-03  cgtest:  2.746e-01  t[s]:     87.04
FluidMinimize: Iter:  94  Etot: -0.016895135461784  |grad|_K:  1.215e-05  alpha:  5.073e-03  linmin: -1.211e-02  cgtest:  3.588e-02  t[s]:     87.27
FluidMinimize: Iter:  95  Etot: -0.016896077036159  |grad|_K:  8.033e-06  alpha:  6.172e-03  linmin: -4.719e-03  cgtest: -1.133e-01  t[s]:     87.50
FluidMinimize: 	Predicted alpha/alphaT>3.000000, increasing alphaT to 1.851598e-02.
FluidMinimize: Iter:  96  Etot: -0.016897310732840  |grad|_K:  1.587e-05  alpha:  1.932e-02  linmin: -2.501e-03  cgtest:  3.606e-02  t[s]:     87.83
FluidMinimize: Iter:  97  Etot: -0.016898491445818  |grad|_K:  8.783e-06  alpha:  4.369e-03  linmin: -1.683e-02  cgtest:  1.163e-01  t[s]:     88.05
FluidMinimize: 	Predicted alpha/alphaT>3.000000, increasing alphaT to 1.310553e-02.
FluidMinimize: Iter:  98  Etot: -0.016899677696185  |grad|_K:  1.045e-05  alpha:  1.492e-02  linmin: -1.646e-03  cgtest: -6.606e-02  t[s]:     88.40
FluidMinimize: Iter:  99  Etot: -0.016900197315901  |grad|_K:  1.092e-05  alpha:  4.947e-03  linmin:  2.082e-03  cgtest:  1.098e-02  t[s]:     88.63
FluidMinimize: Iter: 100  Etot: -0.016901439469115  |grad|_K:  8.432e-06  alpha:  1.091e-02  linmin:  1.924e-03  cgtest:  4.412e-02  t[s]:     88.88
FluidMinimize: None of the convergence criteria satisfied after 100 iterations.

Fluid minimization # 3 changed total free energy by -3.550460e-04 at t[s]:     89.01

-------------------- Electronic Minimization # 3 ---------------------
ElecMinimize: Iter:   0  Etot: -17.280419801171504  |grad|_K:  1.128e-05  alpha:  1.000e+00
ElecMinimize: Iter:   1  Etot: -17.280428001073105  |grad|_K:  6.767e-06  alpha:  7.391e-01  linmin:  1.526e-04  t[s]:     90.54
ElecMinimize: Iter:   2  Etot: -17.280431186111926  |grad|_K:  4.149e-06  alpha:  7.976e-01  linmin:  1.763e-04  t[s]:     91.52
ElecMinimize: Iter:   3  Etot: -17.280432148595736  |grad|_K:  2.356e-06  alpha:  6.412e-01  linmin: -1.252e-05  t[s]:     92.49
ElecMinimize: Iter:   4  Etot: -17.280432611172561  |grad|_K:  1.303e-06  alpha:  9.558e-01  linmin:  1.412e-04  t[s]:     93.48
ElecMinimize: Iter:   5  Etot: -17.280432739494245  |grad|_K:  6.850e-07  alpha:  8.671e-01  linmin: -2.688e-07  t[s]:     94.45
ElecMinimize: Converged (|Delta Etot|<7.845384e-07 for 2 iters).
Setting wave functions to eigenvectors of Hamiltonian

Electronic minimization # 3 changed total free energy by -1.293832e-05 at t[s]:     94.45

---------------------- Fluid Minimization # 4 -----------------------
FluidMinimize: Iter:   0  Etot: -0.017333250761135  |grad|_K:  1.413e-05  alpha:  1.000e+00
FluidMinimize: 	Step increased Etot by 2.108941e-05, reducing alpha to 2.554000e-03.
FluidMinimize: Iter:   1  Etot: -0.017333903978649  |grad|_K:  8.683e-06  alpha:  2.554e-03  linmin: -5.386e-02  cgtest:  5.308e-01  t[s]:     94.98
FluidMinimize: 	Predicted alpha/alphaT>3.000000, increasing alphaT to 7.661999e-03.
FluidMinimize: Iter:   2  Etot: -0.017334784087363  |grad|_K:  9.536e-06  alpha:  1.167e-02  linmin:  3.456e-03  cgtest: -7.645e-02  t[s]:     95.33
FluidMinimize: Converged (|Delta Etot|<3.550460e-06 for 2 iters).

Fluid minimization # 4 changed total free energy by -1.533326e-06 at t[s]:     95.45

-------------------- Electronic Minimization # 4 ---------------------
ElecMinimize: Iter:   0  Etot: -17.280434272820468  |grad|_K:  1.244e-06  alpha:  1.000e+00
ElecMinimize: Iter:   1  Etot: -17.280434347321695  |grad|_K:  4.693e-07  alpha:  5.521e-01  linmin: -2.332e-04  t[s]:     97.03
ElecMinimize: Iter:   2  Etot: -17.280434365607018  |grad|_K:  2.733e-07  alpha:  9.517e-01  linmin: -7.699e-05  t[s]:     98.02
ElecMinimize: Converged (|Delta Etot|<3.550460e-06 for 2 iters).
Setting wave functions to eigenvectors of Hamiltonian

Electronic minimization # 4 changed total free energy by -9.278655e-08 at t[s]:     98.02

Fluid<-->Electron self-consistency loop converged to 1.000000e-05 hartrees after 4 minimization pairs at t[s]:     98.02.
Single-point solvation energy estimate, DeltaEtot = -0.013189672235988

# Ionic positions in cartesian coordinates:
ion O   0.000000000000000   0.000000000000000  -0.670850000000000 0
ion H   0.000000000000000   1.455640919599405   0.473265642501406 1
ion H   0.000000000000000  -1.455640919599405   0.473265642501406 1


# Forces in Cartesian coordinates:
force O   0.000000000000000   0.000000000000000  -0.001781432840450 0
force H   0.000000000000000   0.001763484025587   0.000877986162178 1
force H   0.000000000000000  -0.001763484025587   0.000877986162178 1

# Energy components:
   A_diel =       -0.0173527917922634
   Eewald =        3.8867963011258615
       EH =       18.4461988107406931
     Eloc =      -45.8884845431637558
      Enl =        2.2312715560059346
      Exc =       -4.3471787695691138
 Exc_core =        0.0650479443160548
       KE =        8.3432671267295682
-------------------------------------
     Etot =      -17.2804343656070181

IonicMinimize: Iter:   0  Etot: -17.280434365607018  |grad|_K:  1.137e-03  t[s]:     98.52
IonicMinimize: None of the convergence criteria satisfied after 0 iterations.

#--- Lowdin population analysis ---
# oxidation-state O -0.805
# oxidation-state H +0.459 +0.459


Dumping 'water.wfns' ... done
Dumping 'water.fluidState' ... done
Dumping 'water.Ecomponents' ... done
End date and time: Thu Jun 13 09:58:50 2019  (Duration: 0-0:01:38.67)
Done!
