--------------------------------------------------------------------------
Initialization of PSM library failed.

  Error: PSM is in the finalized state
--------------------------------------------------------------------------
[node2004][[22962,1],0][btl_openib.c:880:mca_btl_openib_add_procs] could not prepare openib device for use
--------------------------------------------------------------------------
The OpenFabrics (openib) BTL failed to initialize while trying to
allocate some locked memory.  This typically can indicate that the
memlock limits are set too low.  For most HPC installations, the
memlock limits should be set to "unlimited".  The failure occured
here:

  Local host:    node2004
  OMPI source:   btl_openib.c:753
  Function:      ompi_free_list_init_ex_new()
  Device:        qib0
  Memlock limit: 65536

You may need to consult with your system administrator to get this
problem fixed.  This FAQ entry on the Open MPI web site may also be
helpful:

    http://www.open-mpi.org/faq/?category=openfabrics#ib-locked-pages
--------------------------------------------------------------------------

*************** JDFTx 1.4.2 (git hash 74b6e54) ***************

Start date and time: Wed Apr 24 10:28:05 2019
Executable /home/jfm343/JDFTXDIR/build/jdftx with command-line: -i Vacuum.in
Running on hosts (process indices):  node2004.physics.cornell.edu (0)
Divided in process groups (process indices):  0 (0)
Resource initialization completed at t[s]:      0.00
Run totals: 1 processes, 12 threads, 0 GPUs


Input parsed successfully to the following command list (including defaults):

basis kpoint-dependent
coords-type Lattice
core-overlap-check vector
coulomb-interaction Slab 001
coulomb-truncation-embed 0 0 0
davidson-band-ratio 1.1
dump End State IonicPositions ElecDensity EigStats Ecomponents
dump-name 100_1-Vacuum.$VAR
elec-cutoff 20 100
elec-eigen-algo Davidson
elec-ex-corr gga-PBEsol
elec-smearing Fermi 0.01
electronic-minimize  \
	dirUpdateScheme      FletcherReeves \
	linminMethod         DirUpdateRecommended \
	nIterations          200 \
	history              15 \
	knormThreshold       0 \
	energyDiffThreshold  1e-08 \
	nEnergyDiff          2 \
	alphaTstart          1 \
	alphaTmin            1e-10 \
	updateTestStepSize   yes \
	alphaTreduceFactor   0.1 \
	alphaTincreaseFactor 3 \
	nAlphaAdjustMax      3 \
	wolfeEnergy          0.0001 \
	wolfeGradient        0.9 \
	fdTest               no
exchange-regularization WignerSeitzTruncated
fluid None
fluid-ex-corr lda-TF lda-PZ
fluid-gummel-loop 10 1.000000e-05
fluid-minimize  \
	dirUpdateScheme      PolakRibiere \
	linminMethod         DirUpdateRecommended \
	nIterations          100 \
	history              15 \
	knormThreshold       0 \
	energyDiffThreshold  0 \
	nEnergyDiff          2 \
	alphaTstart          1 \
	alphaTmin            1e-10 \
	updateTestStepSize   yes \
	alphaTreduceFactor   0.1 \
	alphaTincreaseFactor 3 \
	nAlphaAdjustMax      3 \
	wolfeEnergy          0.0001 \
	wolfeGradient        0.9 \
	fdTest               no
fluid-solvent H2O 55.338 ScalarEOS \
	epsBulk 78.4 \
	pMol 0.92466 \
	epsInf 1.77 \
	Pvap 1.06736e-10 \
	sigmaBulk 4.62e-05 \
	Rvdw 2.61727 \
	Res 1.42 \
	tauNuc 343133 \
	omegaEl 0.55124 \
	gammaEl 0.257245
forces-output-coords Positions
ion O   0.740000000000000   0.480000000000000   0.266000000000000 1
ion O   0.401000000000000   0.720000000000000   0.266000000000000 1
ion C   0.500000000000000   0.500000000000000   0.245000000000000 1
ion H   0.393000000000000   0.348000000000000   0.260000000000000 1
ion H   0.801000000000000   0.327000000000000   0.251000000000000 1
ion H   0.236000000000000   0.726000000000000   0.251000000000000 1
ion Pt   0.000000000000000   0.000000000000000  -0.166700000000000 0
ion Pt   0.500000000000000   0.500000000000000  -0.166700000000000 0
ion Pt   0.000000000000000   0.500000000000000  -0.166700000000000 0
ion Pt   0.500000000000000   0.000000000000000  -0.166700000000000 0
ion Pt   0.750000000000000   0.250000000000000  -0.083300000000000 0
ion Pt   0.250000000000000   0.750000000000000  -0.083300000000000 0
ion Pt   0.250000000000000   0.250000000000000  -0.083300000000000 0
ion Pt   0.750000000000000   0.750000000000000  -0.083300000000000 0
ion Pt   0.500000000000000   0.000000000000000   0.000000000000000 1
ion Pt   0.000000000000000   0.000000000000000   0.000000000000000 1
ion Pt   0.000000000000000   0.500000000000000   0.000000000000000 1
ion Pt   0.500000000000000   0.500000000000000   0.000000000000000 1
ion Pt   0.750000000000000   0.250000000000000   0.083300000000000 1
ion Pt   0.250000000000000   0.750000000000000   0.083300000000000 1
ion Pt   0.250000000000000   0.250000000000000   0.083300000000000 1
ion Pt   0.750000000000000   0.750000000000000   0.083300000000000 1
ion Pt   0.000000000000000   0.000000000000000   0.166700000000000 1
ion Pt   0.000000000000000   0.500000000000000   0.166700000000000 1
ion Pt   0.500000000000000   0.000000000000000   0.166700000000000 1
ion Pt   0.500000000000000   0.500000000000000   0.166700000000000 1
ion-species GBRV/$ID_pbesol.uspp
ion-width 0
ionic-minimize  \
	dirUpdateScheme      L-BFGS \
	linminMethod         DirUpdateRecommended \
	nIterations          5 \
	history              15 \
	knormThreshold       0.0001 \
	energyDiffThreshold  1e-06 \
	nEnergyDiff          2 \
	alphaTstart          1 \
	alphaTmin            1e-10 \
	updateTestStepSize   yes \
	alphaTreduceFactor   0.1 \
	alphaTincreaseFactor 3 \
	nAlphaAdjustMax      3 \
	wolfeEnergy          0.0001 \
	wolfeGradient        0.9 \
	fdTest               no
kpoint   0.000000000000   0.000000000000   0.000000000000  1.00000000000000
kpoint-folding 4 4 1 
latt-move-scale 1 1 1
latt-scale 1 1 1 
lattice Tetragonal 10.4793 44.446
lattice-minimize  \
	dirUpdateScheme      L-BFGS \
	linminMethod         DirUpdateRecommended \
	nIterations          0 \
	history              15 \
	knormThreshold       0 \
	energyDiffThreshold  1e-06 \
	nEnergyDiff          2 \
	alphaTstart          1 \
	alphaTmin            1e-10 \
	updateTestStepSize   yes \
	alphaTreduceFactor   0.1 \
	alphaTincreaseFactor 3 \
	nAlphaAdjustMax      3 \
	wolfeEnergy          0.0001 \
	wolfeGradient        0.9 \
	fdTest               no
lcao-params -1 1e-06 0.01
pcm-variant GLSSA13
spintype no-spin
subspace-rotation-factor 1 yes
symmetries automatic
symmetry-threshold 0.0001



---------- Setting up symmetries ----------

Found 16 point-group symmetries of the bravais lattice
Found 1 space-group symmetries with basis
Applied RMS atom displacement 0 bohrs to make symmetries exact.

---------- Initializing the Grid ----------
R = 
[    10.4793          0          0  ]
[          0    10.4793          0  ]
[          0          0     44.446  ]
unit cell volume = 4880.87
G =
[   0.599581          0          0  ]
[          0   0.599581          0  ]
[          0          0   0.141367  ]
Minimum fftbox size, Smin = [  48  48  204  ]
Chosen fftbox size, S = [  48  48  210  ]

---------- Initializing tighter grid for wavefunction operations ----------
R = 
[    10.4793          0          0  ]
[          0    10.4793          0  ]
[          0          0     44.446  ]
unit cell volume = 4880.87
G =
[   0.599581          0          0  ]
[          0   0.599581          0  ]
[          0          0   0.141367  ]
Minimum fftbox size, Smin = [  44  44  180  ]
Chosen fftbox size, S = [  48  48  180  ]

---------- Exchange Correlation functional ----------
Initalized PBEsol GGA exchange.
Initalized PBEsol GGA correlation.

---------- Setting up pseudopotentials ----------
Width of ionic core gaussian charges (only for fluid interactions / plotting) set to 0

Reading pseudopotential file '/home/jfm343/JDFTXDIR/build/pseudopotentials/GBRV/o_pbesol.uspp':
  Title: O.  Created by USPP 7.3.6 on 3-2-2014
  Reference state energy: -15.849885.  6 valence electrons in orbitals:
    |200>  occupation: 2  eigenvalue: -0.873214
    |210>  occupation: 4  eigenvalue: -0.330058
  lMax: 2  lLocal: 2  QijEcut: 6
  5 projectors sampled on a log grid with 511 points:
    l: 0  eig: -0.873214  rCut: 1.25
    l: 0  eig: 0.000000  rCut: 1.25
    l: 1  eig: -0.330058  rCut: 1.25
    l: 1  eig: 0.000000  rCut: 1.25
    l: 2  eig: 1.000000  rCut: 1.25
  Partial core density with radius 0.7
  Transforming core density to a uniform radial grid of dG=0.02 with 1265 points.
  Transforming local potential to a uniform radial grid of dG=0.02 with 1265 points.
  Transforming nonlocal projectors to a uniform radial grid of dG=0.02 with 432 points.
  Transforming density augmentations to a uniform radial grid of dG=0.02 with 1265 points.
  Transforming atomic orbitals to a uniform radial grid of dG=0.02 with 432 points.
  Core radius for overlap checks: 1.25 bohrs.

Reading pseudopotential file '/home/jfm343/JDFTXDIR/build/pseudopotentials/GBRV/c_pbesol.uspp':
  Title: C.  Created by USPP 7.3.6 on 3-2-2014
  Reference state energy: -5.383511.  4 valence electrons in orbitals:
    |200>  occupation: 2  eigenvalue: -0.501126
    |210>  occupation: 2  eigenvalue: -0.192448
  lMax: 1  lLocal: 2  QijEcut: 5
  4 projectors sampled on a log grid with 503 points:
    l: 0  eig: -0.501126  rCut: 1.3
    l: 0  eig: 0.000000  rCut: 1.3
    l: 1  eig: -0.192448  rCut: 1.3
    l: 1  eig: 0.000000  rCut: 1.3
  Partial core density with radius 1.1
  Transforming core density to a uniform radial grid of dG=0.02 with 1265 points.
  Transforming local potential to a uniform radial grid of dG=0.02 with 1265 points.
  Transforming nonlocal projectors to a uniform radial grid of dG=0.02 with 432 points.
  Transforming density augmentations to a uniform radial grid of dG=0.02 with 1265 points.
  Transforming atomic orbitals to a uniform radial grid of dG=0.02 with 432 points.
  Core radius for overlap checks: 1.30 bohrs.

Reading pseudopotential file '/home/jfm343/JDFTXDIR/build/pseudopotentials/GBRV/h_pbesol.uspp':
  Title: H.  Created by USPP 7.3.6 on 22-9-15
  Reference state energy: -0.449841.  1 valence electrons in orbitals:
    |100>  occupation: 1  eigenvalue: -0.232690
  lMax: 0  lLocal: 1  QijEcut: 6
  2 projectors sampled on a log grid with 395 points:
    l: 0  eig: -0.232690  rCut: 1.2
    l: 0  eig: 1.000000  rCut: 1.2
  Transforming local potential to a uniform radial grid of dG=0.02 with 1265 points.
  Transforming nonlocal projectors to a uniform radial grid of dG=0.02 with 432 points.
  Transforming density augmentations to a uniform radial grid of dG=0.02 with 1265 points.
  Transforming atomic orbitals to a uniform radial grid of dG=0.02 with 432 points.
  Core radius for overlap checks: 1.20 bohrs.

Reading pseudopotential file '/home/jfm343/JDFTXDIR/build/pseudopotentials/GBRV/pt_pbesol.uspp':
  Title: Pt.  Created by USPP 7.3.6 on 22-9-15
  Reference state energy: -104.899005.  16 valence electrons in orbitals:
    |510>  occupation: 6  eigenvalue: -2.158847
    |520>  occupation: 9.5  eigenvalue: -0.336311
    |600>  occupation: 0  eigenvalue: -0.320324
    |610>  occupation: 0  eigenvalue: -0.119800
  lMax: 2  lLocal: 3  QijEcut: 5.5
  6 projectors sampled on a log grid with 745 points:
    l: 0  eig: -0.320324  rCut: 2.45
    l: 0  eig: 1.500000  rCut: 2.45
    l: 1  eig: -2.158847  rCut: 1.6
    l: 1  eig: -0.119800  rCut: 1.6
    l: 2  eig: -0.500000  rCut: 1.6
    l: 2  eig: -0.336311  rCut: 1.6
  Partial core density with radius 1.1
  Transforming core density to a uniform radial grid of dG=0.02 with 1265 points.
  Transforming local potential to a uniform radial grid of dG=0.02 with 1265 points.
  Transforming nonlocal projectors to a uniform radial grid of dG=0.02 with 432 points.
  Transforming density augmentations to a uniform radial grid of dG=0.02 with 1265 points.
  Transforming atomic orbitals to a uniform radial grid of dG=0.02 with 432 points.
  Core radius for overlap checks: 2.45 bohrs.

Initialized 4 species with 26 total atoms.

Folded 1 k-points by 4x4x1 to 16 k-points.

---------- Setting up k-points, bands, fillings ----------
Adding inversion symmetry to k-mesh for non-inversion-symmetric unit cell.
Reduced to 10 k-points under symmetry. 
Computing the number of bands and number of electrons
Calculating initial fillings.
nElectrons: 339.000000   nBands: 255   nStates: 10

----- Setting up reduced wavefunction bases (one per k-point) -----
average nbasis = 20861.812 , ideal nbasis = 20851.448

---------- Setting up coulomb interaction ----------
Setting up double-sized grid for truncated Coulomb potentials:
R = 
[    10.4793          0          0  ]
[          0    10.4793          0  ]
[          0          0     88.892  ]
unit cell volume = 9761.74
G =
[   0.599581          0          0  ]
[          0   0.599581          0  ]
[          0          0  0.0706834  ]
Chosen fftbox size, S = [  48  48  420  ]
Integer grid location selected as the embedding center:
   Grid: [  0  0  0  ]
   Lattice: [  0  0  0  ]
   Cartesian: [  0  0  0  ]
Constructing Wigner-Seitz cell: 6 faces (6 quadrilaterals, 0 hexagons)
Range-separation parameter for embedded mesh potentials due to point charges: 0.589462 bohrs.
Initialized slab truncation along lattice direction 001

---------- Setting up 2D ewald sum ----------
Optimum gaussian width for ewald sums = 6.251509 bohr.
Real space sums over 225 unit cells with max indices [  7  7  0  ]
Reciprocal space sums over 81 terms with max indices [  4  4  0  ]

---------- Allocating electronic variables ----------
Initializing wave functions:  linear combination of atomic orbitals
O pseudo-atom occupations:   s ( 2 )  p ( 4 )
C pseudo-atom occupations:   s ( 2 )  p ( 2 )
H pseudo-atom occupations:   s ( 1 )
Pt pseudo-atom occupations:   s ( 0 )  p ( 6 0 )  d ( 10 )
	FillingsUpdate:  mu: -1.994025861  nElectrons: 339.000000
LCAOMinimize: Iter:   0  F: -1808.2673734315010279  |grad|_K:  2.820e-02  alpha:  1.000e+00
LCAOMinimize: 	Step increased F by 1.765863e+02, reducing alpha to 1.557874e-02.
	FillingsUpdate:  mu: -1.464428245  nElectrons: 339.000000
LCAOMinimize: Iter:   1  F: -1814.1205623897747046  |grad|_K:  1.743e-02  alpha:  1.558e-02  linmin: -1.675e-01  cgtest:  6.849e-01  t[s]:    460.13
LCAOMinimize: Encountered beta<0, resetting CG.
	FillingsUpdate:  mu: -1.040260996  nElectrons: 339.000000
LCAOMinimize: Iter:   2  F: -1815.7247187896555261  |grad|_K:  1.679e-02  alpha:  1.621e-02  linmin:  1.937e-02  cgtest: -1.118e-02  t[s]:    572.34
	FillingsUpdate:  mu: -0.497703004  nElectrons: 339.000000
LCAOMinimize: Iter:   3  F: -1817.1150246379147575  |grad|_K:  6.931e-03  alpha:  1.625e-02  linmin:  1.102e-02  cgtest:  1.842e-01  t[s]:    685.84
LCAOMinimize: 	Predicted alpha/alphaT>3.000000, increasing alphaT to 4.875315e-02.
	FillingsUpdate:  mu: -0.525020389  nElectrons: 339.000000
LCAOMinimize: Iter:   4  F: -1818.1456213280262091  |grad|_K:  1.230e-02  alpha:  6.603e-02  linmin: -1.764e-03  cgtest: -6.018e-03  t[s]:    828.10
	FillingsUpdate:  mu: -0.409941796  nElectrons: 339.000000
LCAOMinimize: Iter:   5  F: -1818.5886659526770472  |grad|_K:  8.349e-03  alpha:  1.528e-02  linmin:  3.969e-02  cgtest: -5.599e-01  t[s]:    941.26
	FillingsUpdate:  mu: -0.233420007  nElectrons: 339.000000
LCAOMinimize: Iter:   6  F: -1818.7663736513684398  |grad|_K:  5.747e-03  alpha:  1.677e-02  linmin:  2.717e-02  cgtest:  8.324e-01  t[s]:   1053.45
LCAOMinimize: Encountered beta<0, resetting CG.
	FillingsUpdate:  mu: -0.069263032  nElectrons: 339.000000
LCAOMinimize: Iter:   7  F: -1819.0759045211466400  |grad|_K:  5.361e-03  alpha:  2.942e-02  linmin:  1.804e-02  cgtest: -3.624e-03  t[s]:   1164.67
	FillingsUpdate:  mu: -0.088227566  nElectrons: 339.000000
LCAOMinimize: Iter:   8  F: -1819.1662904058264303  |grad|_K:  2.362e-03  alpha:  9.659e-03  linmin: -2.293e-02  cgtest:  1.784e-01  t[s]:   1277.66
LCAOMinimize: 	Predicted alpha/alphaT>3.000000, increasing alphaT to 2.897702e-02.
	FillingsUpdate:  mu: -0.277184427  nElectrons: 339.000000
LCAOMinimize: Iter:   9  F: -1819.3044576712402431  |grad|_K:  1.486e-03  alpha:  7.123e-02  linmin: -2.323e-02  cgtest: -1.615e-01  t[s]:   1416.54
	FillingsUpdate:  mu: -0.224618472  nElectrons: 339.000000
LCAOMinimize: Iter:  10  F: -1819.3368729468336369  |grad|_K:  2.750e-03  alpha:  4.159e-02  linmin:  9.982e-05  cgtest: -7.944e-02  t[s]:   1530.60
	FillingsUpdate:  mu: -0.233853895  nElectrons: 339.000000
LCAOMinimize: Iter:  11  F: -1819.3820039128452208  |grad|_K:  1.298e-03  alpha:  1.745e-02  linmin: -5.428e-03  cgtest:  1.752e-01  t[s]:   1644.41
LCAOMinimize: 	Predicted alpha/alphaT>3.000000, increasing alphaT to 5.234299e-02.
	FillingsUpdate:  mu: -0.266892012  nElectrons: 339.000000
LCAOMinimize: Iter:  12  F: -1819.4309282646456722  |grad|_K:  2.171e-03  alpha:  8.618e-02  linmin: -2.249e-03  cgtest: -2.561e-02  t[s]:   1787.18
	FillingsUpdate:  mu: -0.295885073  nElectrons: 339.000000
LCAOMinimize: Iter:  13  F: -1819.4475846190618995  |grad|_K:  1.601e-03  alpha:  1.210e-02  linmin:  1.482e-02  cgtest: -1.703e-01  t[s]:   1899.73
LCAOMinimize: 	Predicted alpha/alphaT>3.000000, increasing alphaT to 3.629920e-02.
	FillingsUpdate:  mu: -0.226254232  nElectrons: 339.000000
LCAOMinimize: Iter:  14  F: -1819.4838543156340620  |grad|_K:  1.271e-03  alpha:  5.113e-02  linmin: -2.456e-05  cgtest:  7.411e-01  t[s]:   2042.91
	FillingsUpdate:  mu: -0.234070316  nElectrons: 339.000000
LCAOMinimize: Iter:  15  F: -1819.4880647767388382  |grad|_K:  5.682e-04  alpha:  7.867e-03  linmin: -8.098e-03  cgtest:  2.577e-02  t[s]:   2157.00
LCAOMinimize: 	Predicted alpha/alphaT>3.000000, increasing alphaT to 2.360168e-02.
	FillingsUpdate:  mu: -0.223854644  nElectrons: 339.000000
LCAOMinimize: Iter:  16  F: -1819.4936870794308561  |grad|_K:  2.563e-04  alpha:  5.297e-02  linmin:  7.543e-03  cgtest: -1.180e-01  t[s]:   2300.30
	FillingsUpdate:  mu: -0.232208123  nElectrons: 339.000000
LCAOMinimize: Iter:  17  F: -1819.4943071650461661  |grad|_K:  2.565e-04  alpha:  2.909e-02  linmin: -4.386e-04  cgtest:  2.022e-02  t[s]:   2414.53
	FillingsUpdate:  mu: -0.237442889  nElectrons: 339.000000
LCAOMinimize: Iter:  18  F: -1819.4945288755325237  |grad|_K:  9.804e-05  alpha:  1.036e-02  linmin:  3.784e-03  cgtest: -4.396e-02  t[s]:   2524.20
LCAOMinimize: 	Predicted alpha/alphaT>3.000000, increasing alphaT to 3.108667e-02.
LCAOMinimize: 	Predicted alpha/alphaT>3.000000, increasing alphaT to 9.326001e-02.
	FillingsUpdate:  mu: -0.243325237  nElectrons: 339.000000
LCAOMinimize: Iter:  19  F: -1819.4949382297065767  |grad|_K:  1.573e-04  alpha:  1.313e-01  linmin:  8.513e-04  cgtest:  6.937e-03  t[s]:   2693.38
	FillingsUpdate:  mu: -0.243191388  nElectrons: 339.000000
LCAOMinimize: Iter:  20  F: -1819.4950484389119083  |grad|_K:  1.239e-04  alpha:  1.362e-02  linmin: -6.996e-04  cgtest:  1.296e-02  t[s]:   2805.38
	FillingsUpdate:  mu: -0.239805053  nElectrons: 339.000000
LCAOMinimize: Iter:  21  F: -1819.4951618929997039  |grad|_K:  4.612e-05  alpha:  2.245e-02  linmin:  2.426e-04  cgtest: -4.030e-02  t[s]:   2917.01
	FillingsUpdate:  mu: -0.239106797  nElectrons: 339.000000
LCAOMinimize: Iter:  22  F: -1819.4951956838183378  |grad|_K:  8.873e-05  alpha:  4.854e-02  linmin:  1.226e-04  cgtest:  1.171e-03  t[s]:   3028.88
	FillingsUpdate:  mu: -0.238727787  nElectrons: 339.000000
LCAOMinimize: Iter:  23  F: -1819.4952448010337775  |grad|_K:  4.878e-05  alpha:  1.904e-02  linmin: -1.375e-04  cgtest:  6.762e-03  t[s]:   3141.12
	FillingsUpdate:  mu: -0.240930546  nElectrons: 339.000000
LCAOMinimize: Iter:  24  F: -1819.4952720423250412  |grad|_K:  3.233e-05  alpha:  3.488e-02  linmin: -2.143e-04  cgtest: -2.060e-03  t[s]:   3254.35
	FillingsUpdate:  mu: -0.241247972  nElectrons: 339.000000
LCAOMinimize: Iter:  25  F: -1819.4952764761922026  |grad|_K:  2.783e-05  alpha:  1.293e-02  linmin:  2.994e-05  cgtest: -1.377e-03  t[s]:   3367.07
LCAOMinimize: 	Predicted alpha/alphaT>3.000000, increasing alphaT to 3.879798e-02.
	FillingsUpdate:  mu: -0.242172027  nElectrons: 339.000000
LCAOMinimize: Iter:  26  F: -1819.4952961344897631  |grad|_K:  2.976e-05  alpha:  7.744e-02  linmin: -4.582e-05  cgtest:  7.447e-03  t[s]:   3508.18
	FillingsUpdate:  mu: -0.241420530  nElectrons: 339.000000
LCAOMinimize: Iter:  27  F: -1819.4953038787220976  |grad|_K:  3.401e-05  alpha:  2.659e-02  linmin: -1.447e-04  cgtest:  2.008e-03  t[s]:   3620.37
	FillingsUpdate:  mu: -0.240778718  nElectrons: 339.000000
LCAOMinimize: Iter:  28  F: -1819.4953091337474689  |grad|_K:  1.595e-05  alpha:  1.384e-02  linmin:  2.895e-06  cgtest: -6.774e-03  t[s]:   3733.98
LCAOMinimize: 	Predicted alpha/alphaT>3.000000, increasing alphaT to 4.152261e-02.
	FillingsUpdate:  mu: -0.240252059  nElectrons: 339.000000
LCAOMinimize: Iter:  29  F: -1819.4953156862277410  |grad|_K:  2.146e-05  alpha:  7.867e-02  linmin:  5.509e-05  cgtest:  1.026e-03  t[s]:   3878.44
	FillingsUpdate:  mu: -0.240327017  nElectrons: 339.000000
LCAOMinimize: Iter:  30  F: -1819.4953173215264997  |grad|_K:  1.207e-05  alpha:  1.086e-02  linmin:  2.136e-04  cgtest: -1.415e-03  t[s]:   3990.47
LCAOMinimize: None of the convergence criteria satisfied after 30 iterations.


---- Citations for features of the code used in this run ----

   Software package:
      R. Sundararaman, K. Letchworth-Weaver, K.A. Schwarz, D. Gunceler, Y. Ozhabes and T.A. Arias, 'JDFTx: software for joint density-functional theory', SoftwareX 6, 278 (2017)

   gga-PBEsol exchange-correlation functional:
      J.P. Perdew et al., Phys. Rev. Lett. 100, 136406 (2008)

   Pseudopotentials:
      KF Garrity, JW Bennett, KM Rabe and D Vanderbilt, Comput. Mater. Sci. 81, 446 (2014)

   Truncated Coulomb potentials:
      R. Sundararaman and T.A. Arias, Phys. Rev. B 87, 165122 (2013)

   Total energy minimization with Auxiliary Hamiltonian:
      C. Freysoldt, S. Boeck, and J. Neugebauer, Phys. Rev. B 79, 241103(R) (2009)

This list may not be complete. Please suggest additional citations or
report any other bugs at https://github.com/shankar1729/jdftx/issues

Initialization completed successfully at t[s]:   4083.58


-------- Electronic minimization -----------
	FillingsUpdate:  mu: -0.240327017  nElectrons: 339.000000
ElecMinimize: Iter:   0  F: -1819.495317321585162  |grad|_K:  1.346e-04  alpha:  1.000e+00
	FillingsUpdate:  mu: -0.188271881  nElectrons: 339.000000
	SubspaceRotationAdjust: set factor to 0.997
ElecMinimize: Iter:   1  F: -1819.917454224911808  |grad|_K:  7.128e-05  alpha:  4.390e-01  linmin:  5.220e-05  t[s]:   4741.92
	FillingsUpdate:  mu: -0.176835603  nElectrons: 339.000000
	SubspaceRotationAdjust: set factor to 0.588
ElecMinimize: Iter:   2  F: -1819.925581923553636  |grad|_K:  1.372e-04  alpha:  3.154e-02  linmin:  1.040e-04  t[s]:   5197.59
	FillingsUpdate:  mu: -0.258140515  nElectrons: 339.000000
	SubspaceRotationAdjust: set factor to 0.502
ElecMinimize: Iter:   3  F: -1820.000313543967195  |grad|_K:  4.835e-05  alpha:  7.751e-02  linmin:  1.339e-05  t[s]:   5654.42
	FillingsUpdate:  mu: -0.218914253  nElectrons: 339.000000
	SubspaceRotationAdjust: set factor to 0.301
ElecMinimize: Iter:   4  F: -1820.007432460416794  |grad|_K:  6.790e-05  alpha:  5.690e-02  linmin:  3.058e-06  t[s]:   6111.09
	FillingsUpdate:  mu: -0.196365927  nElectrons: 339.000000
	SubspaceRotationAdjust: set factor to 0.239
ElecMinimize: Iter:   5  F: -1820.014789852889180  |grad|_K:  3.549e-05  alpha:  2.960e-02  linmin: -1.090e-05  t[s]:   6567.75
ElecMinimize: 	Predicted alpha/alphaT>3.000000, increasing alphaT to 8.880128e-02.
	FillingsUpdate:  mu: -0.185403341  nElectrons: 339.000000
	SubspaceRotationAdjust: set factor to 0.14
ElecMinimize: Iter:   6  F: -1820.027474159913709  |grad|_K:  3.746e-05  alpha:  1.874e-01  linmin: -3.278e-06  t[s]:   7127.38
	FillingsUpdate:  mu: -0.194597189  nElectrons: 339.000000
	SubspaceRotationAdjust: set factor to 0.109
	SubspaceRotationAdjust: resetting CG because factor has changed by 0.109344
ElecMinimize: 	State modified externally: resetting search direction.
ElecMinimize: Iter:   7  F: -1820.030038844057572  |grad|_K:  1.597e-05  alpha:  3.451e-02
ElecMinimize: 	Predicted alpha/alphaT>3.000000, increasing alphaT to 1.035407e-01.
	FillingsUpdate:  mu: -0.204947393  nElectrons: 339.000000
	SubspaceRotationAdjust: set factor to 0.0688
ElecMinimize: Iter:   8  F: -1820.033540328095796  |grad|_K:  1.609e-05  alpha:  2.565e-01  linmin: -1.029e-04  t[s]:   8320.67
	FillingsUpdate:  mu: -0.211405045  nElectrons: 339.000000
	SubspaceRotationAdjust: set factor to 0.0422
ElecMinimize: Iter:   9  F: -1820.034797595567625  |grad|_K:  7.485e-06  alpha:  9.073e-02  linmin:  1.366e-05  t[s]:   8776.56
ElecMinimize: 	Predicted alpha/alphaT>3.000000, increasing alphaT to 2.721898e-01.
	FillingsUpdate:  mu: -0.208258310  nElectrons: 339.000000
	SubspaceRotationAdjust: set factor to 0.0459
ElecMinimize: Iter:  10  F: -1820.036219642930064  |grad|_K:  6.093e-06  alpha:  4.754e-01  linmin:  4.907e-05  t[s]:   9339.19
	FillingsUpdate:  mu: -0.208462119  nElectrons: 339.000000
	SubspaceRotationAdjust: set factor to 0.0342
ElecMinimize: Iter:  11  F: -1820.036698049495271  |grad|_K:  4.703e-06  alpha:  2.415e-01  linmin: -4.092e-06  t[s]:   9795.23
	FillingsUpdate:  mu: -0.209041669  nElectrons: 339.000000
	SubspaceRotationAdjust: set factor to 0.0464
ElecMinimize: Iter:  12  F: -1820.037115178610293  |grad|_K:  3.207e-06  alpha:  3.527e-01  linmin:  2.386e-05  t[s]:  10256.52
	FillingsUpdate:  mu: -0.208412475  nElectrons: 339.000000
	SubspaceRotationAdjust: set factor to 0.0408
ElecMinimize: Iter:  13  F: -1820.037420735140813  |grad|_K:  4.061e-06  alpha:  5.581e-01  linmin:  2.022e-05  t[s]:  10711.87
	FillingsUpdate:  mu: -0.208517773  nElectrons: 339.000000
	SubspaceRotationAdjust: set factor to 0.0358
ElecMinimize: Iter:  14  F: -1820.037672406962201  |grad|_K:  3.689e-06  alpha:  2.861e-01  linmin: -7.318e-06  t[s]:  11162.87
	FillingsUpdate:  mu: -0.207809454  nElectrons: 339.000000
	SubspaceRotationAdjust: set factor to 0.043
ElecMinimize: Iter:  15  F: -1820.038183523090538  |grad|_K:  4.919e-06  alpha:  6.923e-01  linmin: -5.569e-05  t[s]:  11623.41
	FillingsUpdate:  mu: -0.207492497  nElectrons: 339.000000
	SubspaceRotationAdjust: set factor to 0.0358
ElecMinimize: Iter:  16  F: -1820.038708820669854  |grad|_K:  5.325e-06  alpha:  4.048e-01  linmin:  1.342e-05  t[s]:  12072.85
	FillingsUpdate:  mu: -0.208975264  nElectrons: 339.000000
	SubspaceRotationAdjust: set factor to 0.034
ElecMinimize: Iter:  17  F: -1820.039339559094742  |grad|_K:  4.433e-06  alpha:  4.185e-01  linmin: -2.310e-05  t[s]:  12530.77
	FillingsUpdate:  mu: -0.208808172  nElectrons: 339.000000
	SubspaceRotationAdjust: set factor to 0.0374
ElecMinimize: Iter:  18  F: -1820.039819862466629  |grad|_K:  3.703e-06  alpha:  4.491e-01  linmin: -6.656e-06  t[s]:  12988.53
	FillingsUpdate:  mu: -0.207460318  nElectrons: 339.000000
	SubspaceRotationAdjust: set factor to 0.0304
ElecMinimize: Iter:  19  F: -1820.040090258248711  |grad|_K:  2.844e-06  alpha:  3.673e-01  linmin: -3.607e-06  t[s]:  13445.65
	FillingsUpdate:  mu: -0.206809326  nElectrons: 339.000000
	SubspaceRotationAdjust: set factor to 0.0276
ElecMinimize: Iter:  20  F: -1820.040226797197420  |grad|_K:  1.922e-06  alpha:  3.152e-01  linmin: -4.226e-06  t[s]:  13903.57
	FillingsUpdate:  mu: -0.206534270  nElectrons: 339.000000
	SubspaceRotationAdjust: set factor to 0.0343
ElecMinimize: Iter:  21  F: -1820.040309533915206  |grad|_K:  1.316e-06  alpha:  4.176e-01  linmin: -1.255e-05  t[s]:  14357.88
	FillingsUpdate:  mu: -0.206501241  nElectrons: 339.000000
	SubspaceRotationAdjust: set factor to 0.0323
ElecMinimize: Iter:  22  F: -1820.040343760242877  |grad|_K:  1.016e-06  alpha:  3.681e-01  linmin: -4.567e-06  t[s]:  14818.49
	FillingsUpdate:  mu: -0.206418268  nElectrons: 339.000000
	SubspaceRotationAdjust: set factor to 0.0354
ElecMinimize: Iter:  23  F: -1820.040364798281416  |grad|_K:  8.198e-07  alpha:  3.806e-01  linmin: -2.378e-06  t[s]:  15277.64
	FillingsUpdate:  mu: -0.205951713  nElectrons: 339.000000
	SubspaceRotationAdjust: set factor to 0.045
ElecMinimize: Iter:  24  F: -1820.040385674552681  |grad|_K:  7.894e-07  alpha:  5.794e-01  linmin: -2.749e-06  t[s]:  15739.26
	FillingsUpdate:  mu: -0.205672764  nElectrons: 339.000000
	SubspaceRotationAdjust: set factor to 0.0443
ElecMinimize: Iter:  25  F: -1820.040403473655488  |grad|_K:  9.718e-07  alpha:  5.329e-01  linmin:  2.505e-07  t[s]:  16193.87
	FillingsUpdate:  mu: -0.205627615  nElectrons: 339.000000
	SubspaceRotationAdjust: set factor to 0.0379
ElecMinimize: Iter:  26  F: -1820.040420264675049  |grad|_K:  8.575e-07  alpha:  3.328e-01  linmin: -6.402e-08  t[s]:  16658.14
	FillingsUpdate:  mu: -0.205322110  nElectrons: 339.000000
	SubspaceRotationAdjust: set factor to 0.0448
ElecMinimize: Iter:  27  F: -1820.040442685155767  |grad|_K:  7.461e-07  alpha:  5.687e-01  linmin: -4.905e-06  t[s]:  17115.08
	FillingsUpdate:  mu: -0.205084229  nElectrons: 339.000000
	SubspaceRotationAdjust: set factor to 0.0446
ElecMinimize: Iter:  28  F: -1820.040457629236698  |grad|_K:  7.640e-07  alpha:  4.986e-01  linmin: -2.507e-06  t[s]:  17570.52
	FillingsUpdate:  mu: -0.205141582  nElectrons: 339.000000
	SubspaceRotationAdjust: set factor to 0.0381
ElecMinimize: Iter:  29  F: -1820.040466687042908  |grad|_K:  6.251e-07  alpha:  2.897e-01  linmin:  1.937e-07  t[s]:  18027.29
	FillingsUpdate:  mu: -0.205255377  nElectrons: 339.000000
	SubspaceRotationAdjust: set factor to 0.0487
ElecMinimize: Iter:  30  F: -1820.040476073421587  |grad|_K:  4.998e-07  alpha:  4.488e-01  linmin: -9.069e-07  t[s]:  18486.43
	FillingsUpdate:  mu: -0.205335468  nElectrons: 339.000000
	SubspaceRotationAdjust: set factor to 0.0582
ElecMinimize: Iter:  31  F: -1820.040483876242206  |grad|_K:  5.407e-07  alpha:  5.827e-01  linmin: -2.844e-07  t[s]:  18944.09
	FillingsUpdate:  mu: -0.205535220  nElectrons: 339.000000
	SubspaceRotationAdjust: set factor to 0.0538
ElecMinimize: Iter:  32  F: -1820.040490061119726  |grad|_K:  6.717e-07  alpha:  3.956e-01  linmin:  3.218e-07  t[s]:  19399.39
	FillingsUpdate:  mu: -0.205769261  nElectrons: 339.000000
	SubspaceRotationAdjust: set factor to 0.0491
ElecMinimize: Iter:  33  F: -1820.040497793430177  |grad|_K:  5.464e-07  alpha:  3.208e-01  linmin:  1.336e-07  t[s]:  19857.93
	FillingsUpdate:  mu: -0.206122804  nElectrons: 339.000000
	SubspaceRotationAdjust: set factor to 0.0522
ElecMinimize: Iter:  34  F: -1820.040507026534669  |grad|_K:  4.948e-07  alpha:  5.780e-01  linmin: -3.651e-07  t[s]:  20316.22
	FillingsUpdate:  mu: -0.206328679  nElectrons: 339.000000
	SubspaceRotationAdjust: set factor to 0.0554
ElecMinimize: Iter:  35  F: -1820.040513577293950  |grad|_K:  3.837e-07  alpha:  4.992e-01  linmin:  6.677e-09  t[s]:  20774.07
	FillingsUpdate:  mu: -0.206414674  nElectrons: 339.000000
	SubspaceRotationAdjust: set factor to 0.0553
ElecMinimize: Iter:  36  F: -1820.040516973479725  |grad|_K:  3.164e-07  alpha:  4.312e-01  linmin: -1.758e-07  t[s]:  21232.69
	FillingsUpdate:  mu: -0.206449927  nElectrons: 339.000000
	SubspaceRotationAdjust: set factor to 0.045
ElecMinimize: Iter:  37  F: -1820.040518319662169  |grad|_K:  2.729e-07  alpha:  2.509e-01  linmin:  3.594e-08  t[s]:  21688.96
	FillingsUpdate:  mu: -0.206413729  nElectrons: 339.000000
	SubspaceRotationAdjust: set factor to 0.0515
ElecMinimize: Iter:  38  F: -1820.040519567685351  |grad|_K:  1.770e-07  alpha:  3.127e-01  linmin: -1.312e-06  t[s]:  22148.16
	FillingsUpdate:  mu: -0.206377548  nElectrons: 339.000000
	SubspaceRotationAdjust: set factor to 0.0695
ElecMinimize: Iter:  39  F: -1820.040520424046008  |grad|_K:  1.558e-07  alpha:  5.095e-01  linmin: -8.558e-07  t[s]:  22601.20
	FillingsUpdate:  mu: -0.206321749  nElectrons: 339.000000
	SubspaceRotationAdjust: set factor to 0.0685
ElecMinimize: Iter:  40  F: -1820.040521123967437  |grad|_K:  1.852e-07  alpha:  5.380e-01  linmin:  5.420e-08  t[s]:  23055.71
	FillingsUpdate:  mu: -0.206235026  nElectrons: 339.000000
	SubspaceRotationAdjust: set factor to 0.0597
ElecMinimize: Iter:  41  F: -1820.040521590728304  |grad|_K:  2.058e-07  alpha:  2.542e-01  linmin:  1.684e-07  t[s]:  23521.78
	FillingsUpdate:  mu: -0.206095614  nElectrons: 339.000000
	SubspaceRotationAdjust: set factor to 0.063
ElecMinimize: Iter:  42  F: -1820.040522389392436  |grad|_K:  1.644e-07  alpha:  3.514e-01  linmin: -5.451e-07  t[s]:  23983.16
	FillingsUpdate:  mu: -0.205972829  nElectrons: 339.000000
	SubspaceRotationAdjust: set factor to 0.0713
ElecMinimize: Iter:  43  F: -1820.040523197618313  |grad|_K:  1.555e-07  alpha:  5.573e-01  linmin:  8.442e-08  t[s]:  24439.33
	FillingsUpdate:  mu: -0.205900978  nElectrons: 339.000000
	SubspaceRotationAdjust: set factor to 0.0636
ElecMinimize: Iter:  44  F: -1820.040523681169589  |grad|_K:  1.753e-07  alpha:  3.741e-01  linmin: -3.398e-07  t[s]:  24900.43
	FillingsUpdate:  mu: -0.205873638  nElectrons: 339.000000
	SubspaceRotationAdjust: set factor to 0.0515
ElecMinimize: Iter:  45  F: -1820.040523978779220  |grad|_K:  1.235e-07  alpha:  1.808e-01  linmin: -1.907e-07  t[s]:  25359.22
	FillingsUpdate:  mu: -0.205825866  nElectrons: 339.000000
	SubspaceRotationAdjust: set factor to 0.0702
ElecMinimize: Iter:  46  F: -1820.040524315928224  |grad|_K:  9.368e-08  alpha:  4.151e-01  linmin:  9.752e-07  t[s]:  25815.32
	FillingsUpdate:  mu: -0.205818294  nElectrons: 339.000000
	SubspaceRotationAdjust: set factor to 0.0661
ElecMinimize: Iter:  47  F: -1820.040524524678631  |grad|_K:  9.729e-08  alpha:  4.480e-01  linmin:  1.869e-06  t[s]:  26276.21
	FillingsUpdate:  mu: -0.205839076  nElectrons: 339.000000
	SubspaceRotationAdjust: set factor to 0.06
ElecMinimize: Iter:  48  F: -1820.040524635351630  |grad|_K:  9.660e-08  alpha:  2.201e-01  linmin: -2.890e-07  t[s]:  26734.33
	FillingsUpdate:  mu: -0.205869812  nElectrons: 339.000000
	SubspaceRotationAdjust: set factor to 0.0745
ElecMinimize: Iter:  49  F: -1820.040524807938482  |grad|_K:  7.597e-08  alpha:  3.483e-01  linmin:  8.290e-07  t[s]:  27192.51
	FillingsUpdate:  mu: -0.205893330  nElectrons: 339.000000
	SubspaceRotationAdjust: set factor to 0.0847
ElecMinimize: Iter:  50  F: -1820.040524980343207  |grad|_K:  8.827e-08  alpha:  5.656e-01  linmin:  1.848e-06  t[s]:  27650.17
	FillingsUpdate:  mu: -0.205919176  nElectrons: 339.000000
	SubspaceRotationAdjust: set factor to 0.0703
ElecMinimize: Iter:  51  F: -1820.040525062796632  |grad|_K:  9.236e-08  alpha:  2.021e-01  linmin: -9.731e-08  t[s]:  28110.80
	FillingsUpdate:  mu: -0.205956206  nElectrons: 339.000000
	SubspaceRotationAdjust: set factor to 0.0716
ElecMinimize: Iter:  52  F: -1820.040525189938307  |grad|_K:  6.776e-08  alpha:  2.802e-01  linmin:  7.547e-07  t[s]:  28568.19
	FillingsUpdate:  mu: -0.205996318  nElectrons: 339.000000
	SubspaceRotationAdjust: set factor to 0.0873
ElecMinimize: Iter:  53  F: -1820.040525304145149  |grad|_K:  5.725e-08  alpha:  4.729e-01  linmin:  2.097e-06  t[s]:  29025.48
	FillingsUpdate:  mu: -0.206011594  nElectrons: 339.000000
	SubspaceRotationAdjust: set factor to 0.11
ElecMinimize: Iter:  54  F: -1820.040525392823611  |grad|_K:  5.167e-08  alpha:  5.187e-01  linmin: -9.926e-07  t[s]:  29485.64
	FillingsUpdate:  mu: -0.206025281  nElectrons: 339.000000
	SubspaceRotationAdjust: set factor to 0.0983
ElecMinimize: Iter:  55  F: -1820.040525456547357  |grad|_K:  6.026e-08  alpha:  4.391e-01  linmin:  1.311e-06  t[s]:  29947.09
	FillingsUpdate:  mu: -0.206024623  nElectrons: 339.000000
	SubspaceRotationAdjust: set factor to 0.0768
ElecMinimize: Iter:  56  F: -1820.040525482232852  |grad|_K:  5.494e-08  alpha:  1.299e-01  linmin: -1.096e-07  t[s]:  30402.10
	FillingsUpdate:  mu: -0.206027387  nElectrons: 339.000000
	SubspaceRotationAdjust: set factor to 0.102
ElecMinimize: Iter:  57  F: -1820.040525528343323  |grad|_K:  3.673e-08  alpha:  2.783e-01  linmin: -5.159e-06  t[s]:  30854.96
	FillingsUpdate:  mu: -0.206024738  nElectrons: 339.000000
	SubspaceRotationAdjust: set factor to 0.0798
ElecMinimize: Iter:  58  F: -1820.040525559358457  |grad|_K:  4.836e-08  alpha:  4.110e-01  linmin:  2.200e-06  t[s]:  31309.39
	FillingsUpdate:  mu: -0.206020346  nElectrons: 339.000000
	SubspaceRotationAdjust: set factor to 0.0617
ElecMinimize: Iter:  59  F: -1820.040525571605485  |grad|_K:  3.151e-08  alpha:  1.057e-01  linmin:  3.971e-08  t[s]:  31762.50
ElecMinimize: 	Predicted alpha/alphaT>3.000000, increasing alphaT to 3.171644e-01.
	FillingsUpdate:  mu: -0.206019569  nElectrons: 339.000000
	SubspaceRotationAdjust: set factor to 0.0672
ElecMinimize: Iter:  60  F: -1820.040525591752839  |grad|_K:  3.054e-08  alpha:  3.990e-01  linmin:  1.145e-05  t[s]:  32328.85
	FillingsUpdate:  mu: -0.206020911  nElectrons: 339.000000
	SubspaceRotationAdjust: set factor to 0.0601
ElecMinimize: Iter:  61  F: -1820.040525598657950  |grad|_K:  2.474e-08  alpha:  1.551e-01  linmin:  3.590e-07  t[s]:  32785.52
	FillingsUpdate:  mu: -0.206018646  nElectrons: 339.000000
	SubspaceRotationAdjust: set factor to 0.0717
ElecMinimize: Iter:  62  F: -1820.040525608468897  |grad|_K:  2.201e-08  alpha:  3.294e-01  linmin:  2.371e-06  t[s]:  33246.01
ElecMinimize: Converged (|Delta F|<1.000000e-08 for 2 iters).
Setting wave functions to eigenvectors of Hamiltonian

# Ionic positions in lattice coordinates:
ion O   0.740000000000000   0.480000000000000   0.266000000000000 1
ion O   0.401000000000000   0.720000000000000   0.266000000000000 1
ion C   0.500000000000000   0.500000000000000   0.245000000000000 1
ion H   0.393000000000000   0.348000000000000   0.260000000000000 1
ion H   0.801000000000000   0.327000000000000   0.251000000000000 1
ion H   0.236000000000000   0.726000000000000   0.251000000000000 1
ion Pt   0.000000000000000   0.000000000000000  -0.166700000000000 0
ion Pt   0.500000000000000   0.500000000000000  -0.166700000000000 0
ion Pt   0.000000000000000   0.500000000000000  -0.166700000000000 0
ion Pt   0.500000000000000   0.000000000000000  -0.166700000000000 0
ion Pt   0.750000000000000   0.250000000000000  -0.083300000000000 0
ion Pt   0.250000000000000   0.750000000000000  -0.083300000000000 0
ion Pt   0.250000000000000   0.250000000000000  -0.083300000000000 0
ion Pt   0.750000000000000   0.750000000000000  -0.083300000000000 0
ion Pt   0.500000000000000   0.000000000000000   0.000000000000000 1
ion Pt   0.000000000000000   0.000000000000000   0.000000000000000 1
ion Pt   0.000000000000000   0.500000000000000   0.000000000000000 1
ion Pt   0.500000000000000   0.500000000000000   0.000000000000000 1
ion Pt   0.750000000000000   0.250000000000000   0.083300000000000 1
ion Pt   0.250000000000000   0.750000000000000   0.083300000000000 1
ion Pt   0.250000000000000   0.250000000000000   0.083300000000000 1
ion Pt   0.750000000000000   0.750000000000000   0.083300000000000 1
ion Pt   0.000000000000000   0.000000000000000   0.166700000000000 1
ion Pt   0.000000000000000   0.500000000000000   0.166700000000000 1
ion Pt   0.500000000000000   0.000000000000000   0.166700000000000 1
ion Pt   0.500000000000000   0.500000000000000   0.166700000000000 1


# Forces in Lattice coordinates:
force O  -0.199463925344088   0.242585405063161   0.491418273898041 1
force O   0.312743499580909  -0.124139159785836   0.388422404786780 1
force C   0.135884507310354   0.232725761762910   3.451619280882451 1
force H  -0.095985739839272  -0.137867095169373   0.301087817283431 1
force H   0.049235294342139  -0.192572665417571  -0.184733392141841 1
force H  -0.161928219958960   0.005480419343602  -0.254571371110094 1
force Pt  -0.000027582420343  -0.000201487613931   0.334185663807997 0
force Pt   0.000622184657099   0.000531601162240   0.345501759233018 0
force Pt   0.000224785957337   0.000183723113088   0.330027036674447 0
force Pt   0.000147348567367   0.000147187298374   0.327646730426409 0
force Pt  -0.000763956177286   0.000354904703562  -0.288401637463177 0
force Pt   0.000740563901533  -0.000336712132061  -0.284506475030091 0
force Pt   0.000781530551148   0.000566205494967  -0.288691115671713 0
force Pt  -0.000742228495540  -0.000404947912102  -0.283377734801624 0
force Pt  -0.006433761312798  -0.001613439716204   0.037670499496524 1
force Pt  -0.000773463551279  -0.000112996824712  -0.145951333056865 1
force Pt  -0.003938968244031  -0.004379298307498   0.054739990737569 1
force Pt   0.001279246863633  -0.000227730465405  -0.006382773062037 1
force Pt   0.002335226112481  -0.030933739920373   0.069170626848326 1
force Pt  -0.022406655577044   0.012158912767827   0.074854132837749 1
force Pt  -0.024748365378891  -0.017738721423172   0.102621923203208 1
force Pt   0.012660273425505   0.018923733858974   0.081861418101546 1
force Pt  -0.009681240869953   0.010611167869011  -0.303216144262122 1
force Pt   0.029119700826276   0.013247015254769  -0.548717554741378 1
force Pt   0.012123914869552   0.011352314793943  -0.434886804679524 1
force Pt  -0.031454491217181  -0.039792917771927  -3.337282343514493 1

# Energy components:
   Eewald =   -23335.6344661931834708
       EH =   -21802.7525140831785393
     Eloc =    42996.2330641397202271
      Enl =      -15.8421175865202954
      Exc =     -576.2579826838223198
 Exc_core =      324.9916957356761600
       KE =      589.4571973504034759
-------------------------------------
     Etot =    -1819.8051233209080237
       TS =        0.2354022875608258
-------------------------------------
        F =    -1820.0405256084688972

IonicMinimize: Iter:   0  F: -1820.040525608468897  |grad|_K:  1.710e-02  t[s]:  33320.18

#--- Lowdin population analysis ---
# oxidation-state O -0.371 -0.368
# oxidation-state C +0.275
# oxidation-state H +0.237 +0.418 +0.417
# oxidation-state Pt +0.027 +0.027 +0.027 +0.027 -0.008 -0.008 -0.008 -0.008 +0.012 +0.012 +0.012 +0.014 -0.021 -0.022 -0.021 -0.025 -0.079 -0.095 -0.038 -0.052


-------- Electronic minimization -----------
	FillingsUpdate:  mu: -0.234513086  nElectrons: 339.000000
ElecMinimize: Iter:   0  F: -1819.760755865865121  |grad|_K:  1.207e-04  alpha:  1.000e+00
	FillingsUpdate:  mu: -0.146714847  nElectrons: 339.000000
	SubspaceRotationAdjust: set factor to 0.0501
ElecMinimize: Iter:   1  F: -1819.994559516332629  |grad|_K:  6.367e-05  alpha:  3.051e-01  linmin:  6.501e-03  t[s]:  34121.51
	FillingsUpdate:  mu: -0.181466798  nElectrons: 339.000000
	SubspaceRotationAdjust: set factor to 0.0279
ElecMinimize: Iter:   2  F: -1820.017253569451441  |grad|_K:  2.617e-05  alpha:  1.069e-01  linmin:  4.575e-04  t[s]:  34578.46
	FillingsUpdate:  mu: -0.198570206  nElectrons: 339.000000
	SubspaceRotationAdjust: set factor to 0.0394
ElecMinimize: Iter:   3  F: -1820.028844516668414  |grad|_K:  1.185e-05  alpha:  3.174e-01  linmin:  2.805e-06  t[s]:  35038.30
	FillingsUpdate:  mu: -0.200578454  nElectrons: 339.000000
	SubspaceRotationAdjust: set factor to 0.034
ElecMinimize: Iter:   4  F: -1820.030958215200599  |grad|_K:  8.233e-06  alpha:  2.813e-01  linmin: -5.692e-06  t[s]:  35495.04
	FillingsUpdate:  mu: -0.200107010  nElectrons: 339.000000
	SubspaceRotationAdjust: set factor to 0.0417
ElecMinimize: Iter:   5  F: -1820.032395584581536  |grad|_K:  6.783e-06  alpha:  3.962e-01  linmin: -2.466e-05  t[s]:  35947.50
	FillingsUpdate:  mu: -0.200559938  nElectrons: 339.000000
	SubspaceRotationAdjust: set factor to 0.0516
ElecMinimize: Iter:   6  F: -1820.034535557756044  |grad|_K:  8.241e-06  alpha:  8.684e-01  linmin: -8.204e-06  t[s]:  36408.53
	FillingsUpdate:  mu: -0.201110969  nElectrons: 339.000000
	SubspaceRotationAdjust: set factor to 0.0494
ElecMinimize: Iter:   7  F: -1820.036942993259800  |grad|_K:  1.245e-05  alpha:  6.609e-01  linmin:  1.314e-05  t[s]:  36867.76
	FillingsUpdate:  mu: -0.204986895  nElectrons: 339.000000
	SubspaceRotationAdjust: set factor to 0.0387
ElecMinimize: Iter:   8  F: -1820.039902730318772  |grad|_K:  1.334e-05  alpha:  3.641e-01  linmin:  5.127e-05  t[s]:  37330.62
	FillingsUpdate:  mu: -0.204170800  nElectrons: 339.000000
	SubspaceRotationAdjust: set factor to 0.0369
ElecMinimize: Iter:   9  F: -1820.044922256134669  |grad|_K:  1.198e-05  alpha:  5.337e-01  linmin:  8.966e-05  t[s]:  37787.52
	FillingsUpdate:  mu: -0.202837467  nElectrons: 339.000000
	SubspaceRotationAdjust: set factor to 0.0395
ElecMinimize: Iter:  10  F: -1820.048583627873313  |grad|_K:  8.363e-06  alpha:  4.835e-01  linmin:  4.803e-06  t[s]:  38245.02
	FillingsUpdate:  mu: -0.204320323  nElectrons: 339.000000
	SubspaceRotationAdjust: set factor to 0.0347
ElecMinimize: Iter:  11  F: -1820.050153394909103  |grad|_K:  6.079e-06  alpha:  4.201e-01  linmin: -3.397e-05  t[s]:  38701.58
	FillingsUpdate:  mu: -0.204418968  nElectrons: 339.000000
	SubspaceRotationAdjust: set factor to 0.0244
ElecMinimize: Iter:  12  F: -1820.050722263296620  |grad|_K:  4.007e-06  alpha:  2.866e-01  linmin:  2.015e-06  t[s]:  39157.71
	FillingsUpdate:  mu: -0.204275958  nElectrons: 339.000000
	SubspaceRotationAdjust: set factor to 0.0292
ElecMinimize: Iter:  13  F: -1820.051017990529090  |grad|_K:  2.186e-06  alpha:  3.441e-01  linmin: -2.004e-05  t[s]:  39614.20
	FillingsUpdate:  mu: -0.203820166  nElectrons: 339.000000
	SubspaceRotationAdjust: set factor to 0.0348
ElecMinimize: Iter:  14  F: -1820.051131780698825  |grad|_K:  1.571e-06  alpha:  4.449e-01  linmin: -9.081e-06  t[s]:  40069.50
	FillingsUpdate:  mu: -0.203477845  nElectrons: 339.000000
	SubspaceRotationAdjust: set factor to 0.0334
ElecMinimize: Iter:  15  F: -1820.051187597562603  |grad|_K:  1.453e-06  alpha:  4.226e-01  linmin:  1.877e-05  t[s]:  40525.94
	FillingsUpdate:  mu: -0.203350305  nElectrons: 339.000000
	SubspaceRotationAdjust: set factor to 0.037
ElecMinimize: Iter:  16  F: -1820.051236884219179  |grad|_K:  1.211e-06  alpha:  4.368e-01  linmin: -8.314e-06  t[s]:  40980.71
	FillingsUpdate:  mu: -0.202948322  nElectrons: 339.000000
	SubspaceRotationAdjust: set factor to 0.0454
ElecMinimize: Iter:  17  F: -1820.051292132858634  |grad|_K:  1.254e-06  alpha:  7.034e-01  linmin:  6.932e-06  t[s]:  41438.96
	FillingsUpdate:  mu: -0.202703384  nElectrons: 339.000000
	SubspaceRotationAdjust: set factor to 0.0473
ElecMinimize: Iter:  18  F: -1820.051346939353380  |grad|_K:  1.485e-06  alpha:  6.519e-01  linmin:  1.357e-05  t[s]:  41896.56
	FillingsUpdate:  mu: -0.202954684  nElectrons: 339.000000
	SubspaceRotationAdjust: set factor to 0.0389
ElecMinimize: Iter:  19  F: -1820.051386893222343  |grad|_K:  1.455e-06  alpha:  3.394e-01  linmin:  9.576e-06  t[s]:  42353.48
	FillingsUpdate:  mu: -0.203238036  nElectrons: 339.000000
	SubspaceRotationAdjust: set factor to 0.0389
ElecMinimize: Iter:  20  F: -1820.051433007860851  |grad|_K:  1.112e-06  alpha:  4.076e-01  linmin:  9.827e-06  t[s]:  42809.50
	FillingsUpdate:  mu: -0.203371975  nElectrons: 339.000000
	SubspaceRotationAdjust: set factor to 0.0472
ElecMinimize: Iter:  21  F: -1820.051470047399789  |grad|_K:  8.994e-07  alpha:  5.601e-01  linmin: -3.836e-06  t[s]:  43266.61
	FillingsUpdate:  mu: -0.203647081  nElectrons: 339.000000
	SubspaceRotationAdjust: set factor to 0.0523
ElecMinimize: Iter:  22  F: -1820.051493408439455  |grad|_K:  8.032e-07  alpha:  5.395e-01  linmin: -4.065e-06  t[s]:  43722.45
	FillingsUpdate:  mu: -0.203778969  nElectrons: 339.000000
	SubspaceRotationAdjust: set factor to 0.0447
ElecMinimize: Iter:  23  F: -1820.051504092701407  |grad|_K:  7.794e-07  alpha:  3.094e-01  linmin: -7.639e-07  t[s]:  44176.89
	FillingsUpdate:  mu: -0.204020187  nElectrons: 339.000000
	SubspaceRotationAdjust: set factor to 0.0438
ElecMinimize: Iter:  24  F: -1820.051515264724230  |grad|_K:  5.536e-07  alpha:  3.437e-01  linmin: -5.068e-06  t[s]:  44629.32
	FillingsUpdate:  mu: -0.203949383  nElectrons: 339.000000
	SubspaceRotationAdjust: set factor to 0.052
ElecMinimize: Iter:  25  F: -1820.051524535627550  |grad|_K:  4.539e-07  alpha:  5.653e-01  linmin:  4.751e-06  t[s]:  45082.58
	FillingsUpdate:  mu: -0.203834945  nElectrons: 339.000000
	SubspaceRotationAdjust: set factor to 0.0617
ElecMinimize: Iter:  26  F: -1820.051530418888433  |grad|_K:  3.823e-07  alpha:  5.340e-01  linmin: -7.213e-07  t[s]:  45540.43
	FillingsUpdate:  mu: -0.203624028  nElectrons: 339.000000
	SubspaceRotationAdjust: set factor to 0.0659
ElecMinimize: Iter:  27  F: -1820.051534918793550  |grad|_K:  3.764e-07  alpha:  5.754e-01  linmin:  4.576e-06  t[s]:  45998.86
	FillingsUpdate:  mu: -0.203525502  nElectrons: 339.000000
	SubspaceRotationAdjust: set factor to 0.0524
ElecMinimize: Iter:  28  F: -1820.051536882075197  |grad|_K:  3.783e-07  alpha:  2.593e-01  linmin:  3.758e-07  t[s]:  46459.10
	FillingsUpdate:  mu: -0.203350111  nElectrons: 339.000000
	SubspaceRotationAdjust: set factor to 0.0471
ElecMinimize: Iter:  29  F: -1820.051538942325806  |grad|_K:  2.310e-07  alpha:  2.689e-01  linmin: -9.258e-07  t[s]:  46921.80
	FillingsUpdate:  mu: -0.203259572  nElectrons: 339.000000
	SubspaceRotationAdjust: set factor to 0.055
ElecMinimize: Iter:  30  F: -1820.051540579485845  |grad|_K:  1.893e-07  alpha:  5.714e-01  linmin: -2.888e-05  t[s]:  47379.82
	FillingsUpdate:  mu: -0.203177093  nElectrons: 339.000000
	SubspaceRotationAdjust: set factor to 0.0609
ElecMinimize: Iter:  31  F: -1820.051541592610192  |grad|_K:  1.823e-07  alpha:  5.262e-01  linmin:  5.166e-06  t[s]:  47839.44
	FillingsUpdate:  mu: -0.203155960  nElectrons: 339.000000
	SubspaceRotationAdjust: set factor to 0.0491
ElecMinimize: Iter:  32  F: -1820.051542198561492  |grad|_K:  2.048e-07  alpha:  3.412e-01  linmin: -2.402e-06  t[s]:  48300.00
	FillingsUpdate:  mu: -0.203127523  nElectrons: 339.000000
	SubspaceRotationAdjust: set factor to 0.0437
ElecMinimize: Iter:  33  F: -1820.051542888208360  |grad|_K:  1.635e-07  alpha:  3.074e-01  linmin: -1.549e-06  t[s]:  48755.45
	FillingsUpdate:  mu: -0.203146863  nElectrons: 339.000000
	SubspaceRotationAdjust: set factor to 0.0477
ElecMinimize: Iter:  34  F: -1820.051543727765193  |grad|_K:  1.436e-07  alpha:  5.873e-01  linmin:  9.833e-06  t[s]:  49214.75
	FillingsUpdate:  mu: -0.203174771  nElectrons: 339.000000
	SubspaceRotationAdjust: set factor to 0.0512
ElecMinimize: Iter:  35  F: -1820.051544359177342  |grad|_K:  1.208e-07  alpha:  5.747e-01  linmin: -1.808e-06  t[s]:  49669.56
	FillingsUpdate:  mu: -0.203220399  nElectrons: 339.000000
	SubspaceRotationAdjust: set factor to 0.048
ElecMinimize: Iter:  36  F: -1820.051544742095530  |grad|_K:  1.171e-07  alpha:  4.899e-01  linmin:  4.156e-06  t[s]:  50125.47
	FillingsUpdate:  mu: -0.203234115  nElectrons: 339.000000
	SubspaceRotationAdjust: set factor to 0.0364
ElecMinimize: Iter:  37  F: -1820.051544932452089  |grad|_K:  9.098e-08  alpha:  2.595e-01  linmin: -5.092e-06  t[s]:  50582.09
	FillingsUpdate:  mu: -0.203258767  nElectrons: 339.000000
	SubspaceRotationAdjust: set factor to 0.0408
ElecMinimize: Iter:  38  F: -1820.051545093908999  |grad|_K:  6.150e-08  alpha:  3.671e-01  linmin:  4.655e-05  t[s]:  51045.10
	FillingsUpdate:  mu: -0.203281732  nElectrons: 339.000000
	SubspaceRotationAdjust: set factor to 0.0519
ElecMinimize: Iter:  39  F: -1820.051545205766388  |grad|_K:  4.996e-08  alpha:  5.504e-01  linmin: -1.008e-04  t[s]:  51505.55
	FillingsUpdate:  mu: -0.203295398  nElectrons: 339.000000
	SubspaceRotationAdjust: set factor to 0.0565
ElecMinimize: Iter:  40  F: -1820.051545280168057  |grad|_K:  5.177e-08  alpha:  5.448e-01  linmin:  3.587e-05  t[s]:  51958.12
	FillingsUpdate:  mu: -0.203303349  nElectrons: 339.000000
	SubspaceRotationAdjust: set factor to 0.0472
ElecMinimize: Iter:  41  F: -1820.051545320080550  |grad|_K:  5.014e-08  alpha:  2.853e-01  linmin: -1.961e-05  t[s]:  52418.20
	FillingsUpdate:  mu: -0.203300551  nElectrons: 339.000000
	SubspaceRotationAdjust: set factor to 0.043
ElecMinimize: Iter:  42  F: -1820.051545369033192  |grad|_K:  3.564e-08  alpha:  3.672e-01  linmin:  8.083e-05  t[s]:  52880.76
	FillingsUpdate:  mu: -0.203305443  nElectrons: 339.000000
	SubspaceRotationAdjust: set factor to 0.0449
ElecMinimize: Iter:  43  F: -1820.051545403005775  |grad|_K:  2.627e-08  alpha:  5.102e-01  linmin:  7.435e-05  t[s]:  53336.21
	FillingsUpdate:  mu: -0.203303485  nElectrons: 339.000000
	SubspaceRotationAdjust: set factor to 0.0486
ElecMinimize: Iter:  44  F: -1820.051545418069509  |grad|_K:  1.936e-08  alpha:  4.333e-01  linmin: -1.869e-04  t[s]:  53791.81
	FillingsUpdate:  mu: -0.203301498  nElectrons: 339.000000
	SubspaceRotationAdjust: set factor to 0.0448
ElecMinimize: Iter:  45  F: -1820.051545427086012  |grad|_K:  1.859e-08  alpha:  4.112e-01  linmin: -5.574e-05  t[s]:  54252.57
	FillingsUpdate:  mu: -0.203297736  nElectrons: 339.000000
	SubspaceRotationAdjust: set factor to 0.0395
ElecMinimize: Iter:  46  F: -1820.051545433791489  |grad|_K:  1.568e-08  alpha:  3.203e-01  linmin:  6.257e-05  t[s]:  54712.86
ElecMinimize: Converged (|Delta F|<1.000000e-08 for 2 iters).
Setting wave functions to eigenvectors of Hamiltonian

# Ionic positions in lattice coordinates:
ion O   0.738183648844416   0.482209022408709   0.266248763087440 1
ion O   0.403847893501971   0.718869568489935   0.266196625078427 1
ion C   0.501237386567287   0.502119238882835   0.246747259950610 1
ion H   0.392125938140564   0.346744559663128   0.260152415038260 1
ion H   0.801448344649889   0.325246401785377   0.250906485266374 1
ion H   0.234525455122089   0.726049905595664   0.250871132264275 1
ion Pt   0.000000000000000   0.000000000000000  -0.166700000000000 0
ion Pt   0.500000000000000   0.500000000000000  -0.166700000000000 0
ion Pt   0.000000000000000   0.500000000000000  -0.166700000000000 0
ion Pt   0.500000000000000   0.000000000000000  -0.166700000000000 0
ion Pt   0.750000000000000   0.250000000000000  -0.083300000000000 0
ion Pt   0.250000000000000   0.750000000000000  -0.083300000000000 0
ion Pt   0.250000000000000   0.250000000000000  -0.083300000000000 0
ion Pt   0.750000000000000   0.750000000000000  -0.083300000000000 0
ion Pt   0.499941413116306  -0.000014692246169   0.000019069355492 1
ion Pt  -0.000007043285711  -0.000001028967583  -0.000073882690481 1
ion Pt  -0.000035868889623   0.499960121392739   0.000027710180564 1
ion Pt   0.500011649031348   0.499997926249103  -0.000003231052685 1
ion Pt   0.750021264951247   0.249718312300563   0.083335015178737 1
ion Pt   0.249795961326441   0.750110721050026   0.083337892252245 1
ion Pt   0.249774637333657   0.249838468298967   0.083351948712148 1
ion Pt   0.750115286522246   0.750172322618255   0.083341439442102 1
ion Pt  -0.000088158964140   0.000096627031618   0.166546507571625 1
ion Pt   0.000265168762496   0.500120629489390   0.166422231182070 1
ion Pt   0.500110402353436   0.000103376036840   0.166479853965623 1
ion Pt   0.499713570254009   0.499637639176837   0.165010619072330 1


# Forces in Lattice coordinates:
force O  -0.047742222698233   0.025296545552211   0.298843344717099 1
force O   0.056966975758599  -0.038151075975648   0.227302708301849 1
force C   0.065348580066300   0.110014089579021   1.642388492673787 1
force H  -0.060532383151726  -0.086310485201322   0.167812013870131 1
force H  -0.031451998150623   0.016457787936550   0.108774606168654 1
force H   0.047663532873227  -0.004904703584876   0.037147235545799 1
force Pt  -0.000019454534806  -0.000207518511284   0.335598374694671 0
force Pt   0.000584149737511   0.000498039188012   0.342029835767001 0
force Pt   0.000211263781416   0.000167276013156   0.330826390693924 0
force Pt   0.000144584357301   0.000130601634608   0.327967493528390 0
force Pt  -0.001565884591152   0.000932906024418  -0.294496860600226 0
force Pt   0.001240508148510  -0.001291800913796  -0.290734482718185 0
force Pt   0.001470339801912   0.001408632817808  -0.295106334597854 0
force Pt  -0.001463374971555  -0.001124847634174  -0.289118796687194 0
force Pt  -0.006134635880782  -0.001557479894521   0.021333071537609 1
force Pt  -0.000843881929394  -0.000377287165134  -0.112516582414193 1
force Pt  -0.003615076717637  -0.004010145472211   0.040224713704613 1
force Pt   0.000676943627703  -0.000345120315790  -0.021996283289905 1
force Pt   0.009329857517172  -0.033527011814690  -0.010263970486125 1
force Pt  -0.025517418236538   0.019485148425091  -0.000902604062807 1
force Pt  -0.029780039160974  -0.024759550996950   0.016735842153840 1
force Pt   0.017346351286216   0.022464885602445   0.010294555824080 1
force Pt  -0.007758015573345   0.010035676175163  -0.233062940501553 1
force Pt   0.028031590583463   0.011791356430113  -0.486830665554406 1
force Pt   0.011706808017846   0.012003028143250  -0.401976560588199 1
force Pt  -0.024354549986567  -0.034824190447622  -1.529547739624924 1

# Energy components:
   Eewald =   -23322.0182813381143205
       EH =   -21788.3171656994491059
     Eloc =    42968.2152813930806587
      Enl =      -15.8516482691955183
      Exc =     -576.2401778809768302
 Exc_core =      324.9916937128354562
       KE =      589.4043552790835747
-------------------------------------
     Etot =    -1819.8159428027361173
       TS =        0.2356026310554170
-------------------------------------
        F =    -1820.0515454337914889

IonicMinimize: Iter:   1  F: -1820.051545433791489  |grad|_K:  7.820e-03  alpha:  1.000e+00  linmin: -8.671e-01  t[s]:  54786.57

#--- Lowdin population analysis ---
# oxidation-state O -0.359 -0.354
# oxidation-state C +0.289
# oxidation-state H +0.231 +0.415 +0.415
# oxidation-state Pt +0.028 +0.029 +0.028 +0.028 -0.007 -0.007 -0.007 -0.007 +0.012 +0.011 +0.012 +0.014 -0.021 -0.022 -0.021 -0.024 -0.091 -0.102 -0.042 -0.070


-------- Electronic minimization -----------
	FillingsUpdate:  mu: -0.226803970  nElectrons: 339.000000
ElecMinimize: Iter:   0  F: -1819.723578151919128  |grad|_K:  1.310e-04  alpha:  1.000e+00
	FillingsUpdate:  mu: -0.155983132  nElectrons: 339.000000
	SubspaceRotationAdjust: set factor to 0.0294
ElecMinimize: Iter:   1  F: -1819.997076396554803  |grad|_K:  5.113e-05  alpha:  3.029e-01  linmin:  9.804e-03  t[s]:  55588.55
	FillingsUpdate:  mu: -0.185595865  nElectrons: 339.000000
	SubspaceRotationAdjust: set factor to 0.0165
ElecMinimize: Iter:   2  F: -1820.023093283916296  |grad|_K:  2.122e-05  alpha:  1.894e-01  linmin: -1.423e-05  t[s]:  56044.77
	FillingsUpdate:  mu: -0.196951058  nElectrons: 339.000000
	SubspaceRotationAdjust: set factor to 0.0259
ElecMinimize: Iter:   3  F: -1820.031031408173476  |grad|_K:  8.643e-06  alpha:  3.295e-01  linmin:  4.285e-06  t[s]:  56503.65
	FillingsUpdate:  mu: -0.197696502  nElectrons: 339.000000
	SubspaceRotationAdjust: set factor to 0.0249
ElecMinimize: Iter:   4  F: -1820.032568227959700  |grad|_K:  6.031e-06  alpha:  3.845e-01  linmin:  1.084e-05  t[s]:  56959.35
	FillingsUpdate:  mu: -0.197828492  nElectrons: 339.000000
	SubspaceRotationAdjust: set factor to 0.0288
ElecMinimize: Iter:   5  F: -1820.033790507005733  |grad|_K:  6.929e-06  alpha:  6.277e-01  linmin: -4.394e-05  t[s]:  57417.44
	FillingsUpdate:  mu: -0.199300659  nElectrons: 339.000000
	SubspaceRotationAdjust: set factor to 0.034
ElecMinimize: Iter:   6  F: -1820.035667159185778  |grad|_K:  7.787e-06  alpha:  7.297e-01  linmin:  1.894e-05  t[s]:  57878.72
	FillingsUpdate:  mu: -0.200427067  nElectrons: 339.000000
	SubspaceRotationAdjust: set factor to 0.0366
ElecMinimize: Iter:   7  F: -1820.039172335145622  |grad|_K:  1.193e-05  alpha:  1.083e+00  linmin:  2.362e-05  t[s]:  58336.10
	FillingsUpdate:  mu: -0.195648342  nElectrons: 339.000000
	SubspaceRotationAdjust: set factor to 0.033
ElecMinimize: Iter:   8  F: -1820.044280751521455  |grad|_K:  1.534e-05  alpha:  6.929e-01  linmin:  1.701e-05  t[s]:  58795.47
	FillingsUpdate:  mu: -0.195444041  nElectrons: 339.000000
	SubspaceRotationAdjust: set factor to 0.025
ElecMinimize: Iter:   9  F: -1820.049148558801562  |grad|_K:  1.168e-05  alpha:  3.717e-01  linmin: -1.489e-04  t[s]:  59254.11
	FillingsUpdate:  mu: -0.198323247  nElectrons: 339.000000
	SubspaceRotationAdjust: set factor to 0.0279
ElecMinimize: Iter:  10  F: -1820.052608404380862  |grad|_K:  8.190e-06  alpha:  4.643e-01  linmin: -6.670e-05  t[s]:  59715.82
	FillingsUpdate:  mu: -0.199809697  nElectrons: 339.000000
	SubspaceRotationAdjust: set factor to 0.0281
ElecMinimize: Iter:  11  F: -1820.054133874831450  |grad|_K:  5.425e-06  alpha:  4.222e-01  linmin: -3.052e-05  t[s]:  60172.83
	FillingsUpdate:  mu: -0.199165107  nElectrons: 339.000000
	SubspaceRotationAdjust: set factor to 0.0275
ElecMinimize: Iter:  12  F: -1820.054694463655323  |grad|_K:  3.472e-06  alpha:  3.551e-01  linmin:  2.121e-05  t[s]:  60630.49
	FillingsUpdate:  mu: -0.198634330  nElectrons: 339.000000
	SubspaceRotationAdjust: set factor to 0.0328
ElecMinimize: Iter:  13  F: -1820.054967773064163  |grad|_K:  2.468e-06  alpha:  4.241e-01  linmin: -1.548e-05  t[s]:  61088.40
	FillingsUpdate:  mu: -0.198570873  nElectrons: 339.000000
	SubspaceRotationAdjust: set factor to 0.0417
ElecMinimize: Iter:  14  F: -1820.055141026881529  |grad|_K:  2.357e-06  alpha:  5.312e-01  linmin:  5.237e-06  t[s]:  61548.20
	FillingsUpdate:  mu: -0.198921642  nElectrons: 339.000000
	SubspaceRotationAdjust: set factor to 0.0495
ElecMinimize: Iter:  15  F: -1820.055302324265767  |grad|_K:  2.342e-06  alpha:  5.427e-01  linmin:  1.540e-05  t[s]:  62006.39
	FillingsUpdate:  mu: -0.199542989  nElectrons: 339.000000
	SubspaceRotationAdjust: set factor to 0.0464
ElecMinimize: Iter:  16  F: -1820.055434665891880  |grad|_K:  2.643e-06  alpha:  4.512e-01  linmin: -5.011e-06  t[s]:  62467.72
	FillingsUpdate:  mu: -0.200040418  nElectrons: 339.000000
	SubspaceRotationAdjust: set factor to 0.0408
ElecMinimize: Iter:  17  F: -1820.055558704040322  |grad|_K:  2.188e-06  alpha:  3.314e-01  linmin:  8.196e-06  t[s]:  62922.53
	FillingsUpdate:  mu: -0.200829992  nElectrons: 339.000000
	SubspaceRotationAdjust: set factor to 0.0452
ElecMinimize: Iter:  18  F: -1820.055691588220270  |grad|_K:  1.745e-06  alpha:  5.187e-01  linmin: -1.698e-05  t[s]:  63377.92
	FillingsUpdate:  mu: -0.201318318  nElectrons: 339.000000
	SubspaceRotationAdjust: set factor to 0.0547
ElecMinimize: Iter:  19  F: -1820.055769576439388  |grad|_K:  1.450e-06  alpha:  4.782e-01  linmin:  1.860e-06  t[s]:  63836.99
	FillingsUpdate:  mu: -0.201848831  nElectrons: 339.000000
	SubspaceRotationAdjust: set factor to 0.0689
ElecMinimize: Iter:  20  F: -1820.055826281974078  |grad|_K:  1.285e-06  alpha:  5.041e-01  linmin: -1.975e-06  t[s]:  64296.28
	FillingsUpdate:  mu: -0.202252406  nElectrons: 339.000000
	SubspaceRotationAdjust: set factor to 0.0866
ElecMinimize: Iter:  21  F: -1820.055877589952843  |grad|_K:  1.194e-06  alpha:  5.807e-01  linmin: -3.022e-06  t[s]:  64753.08
	FillingsUpdate:  mu: -0.202015208  nElectrons: 339.000000
	SubspaceRotationAdjust: set factor to 0.0783
ElecMinimize: Iter:  22  F: -1820.055912591599281  |grad|_K:  1.414e-06  alpha:  4.588e-01  linmin:  2.730e-06  t[s]:  65216.04
	FillingsUpdate:  mu: -0.201869647  nElectrons: 339.000000
	SubspaceRotationAdjust: set factor to 0.0588
ElecMinimize: Iter:  23  F: -1820.055930225266138  |grad|_K:  1.247e-06  alpha:  1.652e-01  linmin:  1.360e-05  t[s]:  65672.92
	FillingsUpdate:  mu: -0.201321320  nElectrons: 339.000000
	SubspaceRotationAdjust: set factor to 0.0645
ElecMinimize: Iter:  24  F: -1820.055957443385296  |grad|_K:  8.964e-07  alpha:  3.279e-01  linmin:  1.457e-05  t[s]:  66129.63
	FillingsUpdate:  mu: -0.201065857  nElectrons: 339.000000
	SubspaceRotationAdjust: set factor to 0.071
ElecMinimize: Iter:  25  F: -1820.055975085212594  |grad|_K:  7.396e-07  alpha:  4.111e-01  linmin:  6.639e-06  t[s]:  66588.02
	FillingsUpdate:  mu: -0.200967105  nElectrons: 339.000000
	SubspaceRotationAdjust: set factor to 0.0566
ElecMinimize: Iter:  26  F: -1820.055981419193131  |grad|_K:  6.936e-07  alpha:  2.166e-01  linmin:  2.048e-06  t[s]:  67046.71
	FillingsUpdate:  mu: -0.200696229  nElectrons: 339.000000
	SubspaceRotationAdjust: set factor to 0.0567
ElecMinimize: Iter:  27  F: -1820.055987922411759  |grad|_K:  4.476e-07  alpha:  2.527e-01  linmin:  9.042e-06  t[s]:  67508.17
	FillingsUpdate:  mu: -0.200515179  nElectrons: 339.000000
	SubspaceRotationAdjust: set factor to 0.0731
ElecMinimize: Iter:  28  F: -1820.055992647193307  |grad|_K:  3.319e-07  alpha:  4.415e-01  linmin:  1.140e-05  t[s]:  67970.14
	FillingsUpdate:  mu: -0.200468587  nElectrons: 339.000000
	SubspaceRotationAdjust: set factor to 0.0651
ElecMinimize: Iter:  29  F: -1820.055994912732331  |grad|_K:  3.371e-07  alpha:  3.847e-01  linmin:  3.688e-06  t[s]:  68430.77
	FillingsUpdate:  mu: -0.200414999  nElectrons: 339.000000
	SubspaceRotationAdjust: set factor to 0.0557
ElecMinimize: Iter:  30  F: -1820.055996153514343  |grad|_K:  3.086e-07  alpha:  2.040e-01  linmin:  9.005e-07  t[s]:  68891.12
	FillingsUpdate:  mu: -0.200376426  nElectrons: 339.000000
	SubspaceRotationAdjust: set factor to 0.0689
ElecMinimize: Iter:  31  F: -1820.055998004675530  |grad|_K:  2.421e-07  alpha:  3.628e-01  linmin: -2.299e-05  t[s]:  69348.89
	FillingsUpdate:  mu: -0.200366518  nElectrons: 339.000000
	SubspaceRotationAdjust: set factor to 0.0753
ElecMinimize: Iter:  32  F: -1820.055999477093110  |grad|_K:  2.498e-07  alpha:  4.684e-01  linmin: -1.368e-05  t[s]:  69809.64
	FillingsUpdate:  mu: -0.200386850  nElectrons: 339.000000
	SubspaceRotationAdjust: set factor to 0.0638
ElecMinimize: Iter:  33  F: -1820.056000213933885  |grad|_K:  2.623e-07  alpha:  2.203e-01  linmin:  3.621e-06  t[s]:  70266.24
	FillingsUpdate:  mu: -0.200510632  nElectrons: 339.000000
	SubspaceRotationAdjust: set factor to 0.067
ElecMinimize: Iter:  34  F: -1820.056001339264412  |grad|_K:  1.962e-07  alpha:  3.061e-01  linmin:  2.189e-05  t[s]:  70719.54
	FillingsUpdate:  mu: -0.200583216  nElectrons: 339.000000
	SubspaceRotationAdjust: set factor to 0.0809
ElecMinimize: Iter:  35  F: -1820.056002334763662  |grad|_K:  1.735e-07  alpha:  4.830e-01  linmin: -3.276e-05  t[s]:  71181.78
	FillingsUpdate:  mu: -0.200597948  nElectrons: 339.000000
	SubspaceRotationAdjust: set factor to 0.0661
ElecMinimize: Iter:  36  F: -1820.056002914488545  |grad|_K:  1.915e-07  alpha:  3.590e-01  linmin: -2.180e-06  t[s]:  71635.27
	FillingsUpdate:  mu: -0.200624748  nElectrons: 339.000000
	SubspaceRotationAdjust: set factor to 0.0541
ElecMinimize: Iter:  37  F: -1820.056003238130870  |grad|_K:  1.481e-07  alpha:  1.648e-01  linmin: -3.981e-06  t[s]:  72097.07
	FillingsUpdate:  mu: -0.200654506  nElectrons: 339.000000
	SubspaceRotationAdjust: set factor to 0.0712
ElecMinimize: Iter:  38  F: -1820.056003730748671  |grad|_K:  1.171e-07  alpha:  4.170e-01  linmin: -6.911e-05  t[s]:  72558.65
	FillingsUpdate:  mu: -0.200656876  nElectrons: 339.000000
	SubspaceRotationAdjust: set factor to 0.0623
ElecMinimize: Iter:  39  F: -1820.056004000966823  |grad|_K:  1.275e-07  alpha:  3.665e-01  linmin:  2.712e-05  t[s]:  73020.33
	FillingsUpdate:  mu: -0.200656972  nElectrons: 339.000000
	SubspaceRotationAdjust: set factor to 0.0491
ElecMinimize: Iter:  40  F: -1820.056004148015290  |grad|_K:  8.979e-08  alpha:  1.701e-01  linmin:  6.320e-07  t[s]:  73478.59
	FillingsUpdate:  mu: -0.200631888  nElectrons: 339.000000
	SubspaceRotationAdjust: set factor to 0.064
ElecMinimize: Iter:  41  F: -1820.056004319700833  |grad|_K:  7.069e-08  alpha:  3.894e-01  linmin: -1.536e-04  t[s]:  73932.57
	FillingsUpdate:  mu: -0.200616638  nElectrons: 339.000000
	SubspaceRotationAdjust: set factor to 0.0602
ElecMinimize: Iter:  42  F: -1820.056004410018204  |grad|_K:  6.808e-08  alpha:  3.328e-01  linmin: -3.013e-05  t[s]:  74394.58
	FillingsUpdate:  mu: -0.200608677  nElectrons: 339.000000
	SubspaceRotationAdjust: set factor to 0.049
ElecMinimize: Iter:  43  F: -1820.056004457425843  |grad|_K:  4.737e-08  alpha:  1.898e-01  linmin:  7.451e-05  t[s]:  74855.06
	FillingsUpdate:  mu: -0.200586252  nElectrons: 339.000000
	SubspaceRotationAdjust: set factor to 0.0681
ElecMinimize: Iter:  44  F: -1820.056004502290079  |grad|_K:  3.328e-08  alpha:  3.665e-01  linmin: -4.173e-04  t[s]:  75316.89
	FillingsUpdate:  mu: -0.200570501  nElectrons: 339.000000
	SubspaceRotationAdjust: set factor to 0.0587
ElecMinimize: Iter:  45  F: -1820.056004529701340  |grad|_K:  3.677e-08  alpha:  4.348e-01  linmin: -9.427e-05  t[s]:  75775.71
	FillingsUpdate:  mu: -0.200566211  nElectrons: 339.000000
	SubspaceRotationAdjust: set factor to 0.0518
ElecMinimize: Iter:  46  F: -1820.056004544476764  |grad|_K:  3.069e-08  alpha:  1.990e-01  linmin: -2.613e-05  t[s]:  76237.29
	FillingsUpdate:  mu: -0.200560250  nElectrons: 339.000000
	SubspaceRotationAdjust: set factor to 0.073
ElecMinimize: Iter:  47  F: -1820.056004563166198  |grad|_K:  2.417e-08  alpha:  3.424e-01  linmin: -6.820e-04  t[s]:  76690.99
	FillingsUpdate:  mu: -0.200554739  nElectrons: 339.000000
	SubspaceRotationAdjust: set factor to 0.059
ElecMinimize: Iter:  48  F: -1820.056004577471640  |grad|_K:  3.292e-08  alpha:  4.289e-01  linmin:  2.284e-04  t[s]:  77145.36
	FillingsUpdate:  mu: -0.200554935  nElectrons: 339.000000
	SubspaceRotationAdjust: set factor to 0.0544
ElecMinimize: Iter:  49  F: -1820.056004587333973  |grad|_K:  2.529e-08  alpha:  1.685e-01  linmin: -1.125e-05  t[s]:  77606.47
	FillingsUpdate:  mu: -0.200554989  nElectrons: 339.000000
	SubspaceRotationAdjust: set factor to 0.0517
ElecMinimize: Iter:  50  F: -1820.056004600182860  |grad|_K:  2.541e-08  alpha:  3.423e-01  linmin: -3.677e-04  t[s]:  78065.66
	FillingsUpdate:  mu: -0.200553694  nElectrons: 339.000000
	SubspaceRotationAdjust: set factor to 0.0437
ElecMinimize: Iter:  51  F: -1820.056004606326724  |grad|_K:  1.975e-08  alpha:  1.831e-01  linmin: -1.021e-04  t[s]:  78520.46
	FillingsUpdate:  mu: -0.200555547  nElectrons: 339.000000
	SubspaceRotationAdjust: set factor to 0.054
ElecMinimize: Iter:  52  F: -1820.056004614780704  |grad|_K:  1.883e-08  alpha:  4.216e-01  linmin: -4.153e-05  t[s]:  78981.75
ElecMinimize: Converged (|Delta F|<1.000000e-08 for 2 iters).
Setting wave functions to eigenvectors of Hamiltonian

# Ionic positions in lattice coordinates:
ion O   0.737477729323439   0.482260284331699   0.266593637441378 1
ion O   0.404513992947741   0.718222344391888   0.266457019760348 1
ion C   0.502526974055767   0.504280906720841   0.248544209935803 1
ion H   0.390860933574891   0.344943214889395   0.260342780466012 1
ion H   0.800557386213062   0.326105909443775   0.251079671601105 1
ion H   0.236081516164434   0.725916148399203   0.250955374158188 1
ion Pt   0.000000000000000   0.000000000000000  -0.166700000000000 0
ion Pt   0.500000000000000   0.500000000000000  -0.166700000000000 0
ion Pt   0.000000000000000   0.500000000000000  -0.166700000000000 0
ion Pt   0.500000000000000   0.000000000000000  -0.166700000000000 0
ion Pt   0.750000000000000   0.250000000000000  -0.083300000000000 0
ion Pt   0.250000000000000   0.750000000000000  -0.083300000000000 0
ion Pt   0.250000000000000   0.250000000000000  -0.083300000000000 0
ion Pt   0.750000000000000   0.750000000000000  -0.083300000000000 0
ion Pt   0.499805445388069  -0.000049259259332   0.000043348853248 1
ion Pt  -0.000026010085320  -0.000010057650486  -0.000208851278954 1
ion Pt  -0.000115645194440   0.499871650102719   0.000075625649031 1
ion Pt   0.500025310503646   0.499989960566346  -0.000032519719394 1
ion Pt   0.750245615746765   0.248965252694787   0.083311891900104 1
ion Pt   0.249220126606188   0.750562102499947   0.083326845003102 1
ion Pt   0.249099306997607   0.249270298989206   0.083361418886953 1
ion Pt   0.750512793014860   0.750681164999357   0.083344808946815 1
ion Pt  -0.000256464564943   0.000318854075049   0.166267055976413 1
ion Pt   0.000887116517225   0.500379895941202   0.165827406896765 1
ion Pt   0.500370233827285   0.000372324648324   0.165986322839812 1
ion Pt   0.499187717479082   0.498873509313519   0.163353225323370 1


# Forces in Lattice coordinates:
force O  -0.014809535782379   0.063391837255556   0.495307437913013 1
force O   0.071299094944939   0.023047546562726   0.453938679455256 1
force C  -0.026442671258457  -0.052178938811261   0.381197066895592 1
force H  -0.007746311665531  -0.008919374794221   0.030714158683577 1
force H  -0.026752178229798  -0.003343238175315   0.031572777159115 1
force H   0.021911463906988  -0.008534435222368  -0.032014358448219 1
force Pt  -0.000029071547775  -0.000222715481976   0.337343138303974 0
force Pt   0.000516197853840   0.000451744454012   0.337956170588362 0
force Pt   0.000234385480592   0.000165131587432   0.331117548888185 0
force Pt   0.000163859368470   0.000140789044089   0.328056509089303 0
force Pt  -0.002588627054578   0.001643275943208  -0.299275412892531 0
force Pt   0.001716832729605  -0.002665986090399  -0.295375241845170 0
force Pt   0.002140700103198   0.002536008087146  -0.299987850392184 0
force Pt  -0.002283810459365  -0.002085899965765  -0.293576861150578 0
force Pt  -0.005128842971528  -0.001577824546452   0.000966970632906 1
force Pt  -0.001598099335537  -0.001267743774106  -0.087573509898934 1
force Pt  -0.003066997615319  -0.003029594617708   0.019010698825848 1
force Pt  -0.000451439195787  -0.000575335131659  -0.013317202245170 1
force Pt   0.010396592331996  -0.026126099930143  -0.099322491426838 1
force Pt  -0.019973421410028   0.019618597818476  -0.087166033098337 1
force Pt  -0.026925669607541  -0.024466929675034  -0.091527798641935 1
force Pt   0.014037567680117   0.016895257735275  -0.067542508565766 1
force Pt  -0.005133906189845   0.008524183310696  -0.148545399656530 1
force Pt   0.021912310849080   0.009444336325171  -0.407744551839144 1
force Pt   0.009615915988223   0.009532883048098  -0.339519427155222 1
force Pt  -0.011350680071832  -0.021311560742455  -0.228915615276879 1

# Energy components:
   Eewald =   -23302.4066191121492011
       EH =   -21767.9588408709314535
     Eloc =    42928.2386121680829092
      Enl =      -15.8464950115013661
      Exc =     -576.2471775135842336
 Exc_core =      324.9916964352213995
       KE =      589.4083789525133170
-------------------------------------
     Etot =    -1819.8204449523445874
       TS =        0.2355596624360796
-------------------------------------
        F =    -1820.0560046147807043

IonicMinimize: Iter:   2  F: -1820.056004614780704  |grad|_K:  3.552e-03  alpha:  1.000e+00  linmin: -4.678e-01  t[s]:  79054.98

#--- Lowdin population analysis ---
# oxidation-state O -0.355 -0.348
# oxidation-state C +0.305
# oxidation-state H +0.225 +0.418 +0.419
# oxidation-state Pt +0.028 +0.029 +0.028 +0.028 -0.007 -0.007 -0.007 -0.007 +0.012 +0.010 +0.012 +0.014 -0.020 -0.021 -0.020 -0.023 -0.097 -0.106 -0.046 -0.085


-------- Electronic minimization -----------
	FillingsUpdate:  mu: -0.206311741  nElectrons: 339.000000
ElecMinimize: Iter:   0  F: -1819.810650116941360  |grad|_K:  1.186e-04  alpha:  1.000e+00
	FillingsUpdate:  mu: -0.138957359  nElectrons: 339.000000
	SubspaceRotationAdjust: set factor to 0.0371
ElecMinimize: Iter:   1  F: -1819.996747157375921  |grad|_K:  6.954e-05  alpha:  2.468e-01  linmin: -1.814e-04  t[s]:  79859.97
	FillingsUpdate:  mu: -0.175880005  nElectrons: 339.000000
	SubspaceRotationAdjust: set factor to 0.0224
ElecMinimize: Iter:   2  F: -1820.034704034875404  |grad|_K:  2.068e-05  alpha:  1.465e-01  linmin: -4.820e-05  t[s]:  80313.95
	FillingsUpdate:  mu: -0.190467557  nElectrons: 339.000000
	SubspaceRotationAdjust: set factor to 0.033
ElecMinimize: Iter:   3  F: -1820.042978370902119  |grad|_K:  7.880e-06  alpha:  3.615e-01  linmin:  1.249e-06  t[s]:  80772.03
	FillingsUpdate:  mu: -0.192827437  nElectrons: 339.000000
	SubspaceRotationAdjust: set factor to 0.0283
ElecMinimize: Iter:   4  F: -1820.044243803554991  |grad|_K:  5.446e-06  alpha:  3.809e-01  linmin:  7.540e-06  t[s]:  81227.84
	FillingsUpdate:  mu: -0.194954806  nElectrons: 339.000000
	SubspaceRotationAdjust: set factor to 0.0297
ElecMinimize: Iter:   5  F: -1820.045003441044173  |grad|_K:  5.530e-06  alpha:  4.784e-01  linmin: -5.646e-05  t[s]:  81686.97
	FillingsUpdate:  mu: -0.198231302  nElectrons: 339.000000
	SubspaceRotationAdjust: set factor to 0.0346
ElecMinimize: Iter:   6  F: -1820.046146702871511  |grad|_K:  5.840e-06  alpha:  6.982e-01  linmin:  4.686e-05  t[s]:  82151.54
	FillingsUpdate:  mu: -0.202236625  nElectrons: 339.000000
	SubspaceRotationAdjust: set factor to 0.0382
ElecMinimize: Iter:   7  F: -1820.047975766090303  |grad|_K:  7.954e-06  alpha:  1.005e+00  linmin: -5.062e-06  t[s]:  82614.89
	FillingsUpdate:  mu: -0.203297217  nElectrons: 339.000000
	SubspaceRotationAdjust: set factor to 0.0385
ElecMinimize: Iter:   8  F: -1820.050836603534208  |grad|_K:  1.044e-05  alpha:  8.500e-01  linmin: -7.542e-05  t[s]:  83072.48
	FillingsUpdate:  mu: -0.202831854  nElectrons: 339.000000
	SubspaceRotationAdjust: set factor to 0.0297
ElecMinimize: Iter:   9  F: -1820.053228025353974  |grad|_K:  9.443e-06  alpha:  3.836e-01  linmin: -2.766e-04  t[s]:  83533.52
	FillingsUpdate:  mu: -0.204941154  nElectrons: 339.000000
	SubspaceRotationAdjust: set factor to 0.0287
ElecMinimize: Iter:  10  F: -1820.055211987249777  |grad|_K:  6.814e-06  alpha:  4.016e-01  linmin: -1.063e-04  t[s]:  83987.95
	FillingsUpdate:  mu: -0.206266257  nElectrons: 339.000000
	SubspaceRotationAdjust: set factor to 0.032
ElecMinimize: Iter:  11  F: -1820.056356278825433  |grad|_K:  4.989e-06  alpha:  4.545e-01  linmin: -1.039e-05  t[s]:  84446.77
	FillingsUpdate:  mu: -0.205755851  nElectrons: 339.000000
	SubspaceRotationAdjust: set factor to 0.0321
ElecMinimize: Iter:  12  F: -1820.056870083018339  |grad|_K:  3.498e-06  alpha:  3.851e-01  linmin:  2.818e-05  t[s]:  84906.45
	FillingsUpdate:  mu: -0.204728196  nElectrons: 339.000000
	SubspaceRotationAdjust: set factor to 0.0303
ElecMinimize: Iter:  13  F: -1820.057112300379231  |grad|_K:  2.527e-06  alpha:  3.705e-01  linmin: -1.650e-05  t[s]:  85367.08
	FillingsUpdate:  mu: -0.203339808  nElectrons: 339.000000
	SubspaceRotationAdjust: set factor to 0.0337
ElecMinimize: Iter:  14  F: -1820.057255016648924  |grad|_K:  1.902e-06  alpha:  4.175e-01  linmin:  1.290e-05  t[s]:  85823.60
	FillingsUpdate:  mu: -0.202464179  nElectrons: 339.000000
	SubspaceRotationAdjust: set factor to 0.0419
ElecMinimize: Iter:  15  F: -1820.057349485004124  |grad|_K:  1.447e-06  alpha:  4.883e-01  linmin:  3.216e-06  t[s]:  86281.17
	FillingsUpdate:  mu: -0.202008247  nElectrons: 339.000000
	SubspaceRotationAdjust: set factor to 0.038
ElecMinimize: Iter:  16  F: -1820.057397486985565  |grad|_K:  1.410e-06  alpha:  4.283e-01  linmin: -4.015e-06  t[s]:  86737.20
	FillingsUpdate:  mu: -0.201410697  nElectrons: 339.000000
	SubspaceRotationAdjust: set factor to 0.0356
ElecMinimize: Iter:  17  F: -1820.057434633775983  |grad|_K:  1.175e-06  alpha:  3.491e-01  linmin:  5.993e-06  t[s]:  87197.26
	FillingsUpdate:  mu: -0.200746191  nElectrons: 339.000000
	SubspaceRotationAdjust: set factor to 0.0436
ElecMinimize: Iter:  18  F: -1820.057481178026592  |grad|_K:  1.096e-06  alpha:  6.299e-01  linmin: -3.349e-06  t[s]:  87658.32
	FillingsUpdate:  mu: -0.200259070  nElectrons: 339.000000
	SubspaceRotationAdjust: set factor to 0.0494
ElecMinimize: Iter:  19  F: -1820.057524139874886  |grad|_K:  1.181e-06  alpha:  6.676e-01  linmin: -2.732e-06  t[s]:  88115.72
	FillingsUpdate:  mu: -0.200035255  nElectrons: 339.000000
	SubspaceRotationAdjust: set factor to 0.0429
ElecMinimize: Iter:  20  F: -1820.057555721045219  |grad|_K:  1.337e-06  alpha:  4.226e-01  linmin: -1.913e-06  t[s]:  88575.89
	FillingsUpdate:  mu: -0.200167182  nElectrons: 339.000000
	SubspaceRotationAdjust: set factor to 0.0348
ElecMinimize: Iter:  21  F: -1820.057586506833559  |grad|_K:  9.954e-07  alpha:  3.220e-01  linmin: -3.529e-06  t[s]:  89033.55
	FillingsUpdate:  mu: -0.200144073  nElectrons: 339.000000
	SubspaceRotationAdjust: set factor to 0.0412
ElecMinimize: Iter:  22  F: -1820.057611477805722  |grad|_K:  6.660e-07  alpha:  4.710e-01  linmin:  6.963e-06  t[s]:  89489.70
	FillingsUpdate:  mu: -0.200193477  nElectrons: 339.000000
	SubspaceRotationAdjust: set factor to 0.0465
[...]
	FillingsUpdate:  mu: -0.173600000  nElectrons: 339.019788
	SubspaceRotationAdjust: set factor to 0.00694
ElecMinimize: Iter:  10  G: -1761.212934000039240  |grad|_K:  3.101e-07  alpha:  4.427e-01  linmin:  1.079e-05  t[s]:  12414.76
ElecMinimize: Converged (|Delta G|<6.917942e-06 for 2 iters).
Setting wave functions to eigenvectors of Hamiltonian

Electronic minimization # 2 changed total free energy by -1.334809e-04 at t[s]:  12435.31

---------------------- Fluid Minimization # 3 -----------------------
FluidMinimize: Iter:   0  G: -0.006773989457286  |grad|_K:  1.601e-04  alpha:  1.000e+00
FluidMinimize: Iter:   1  G: -0.006773989457286  |grad|_K:  1.601e-04  alpha:  6.713e-26  linmin: -1.570e-01  cgtest:  1.000e+00  t[s]:  12436.18
FluidMinimize: 	Step increased G by 5.204170e-18, reducing alpha to 6.713324e-27.
FluidMinimize: 	Step increased G by 6.938894e-18, reducing alpha to 6.713324e-28.
FluidMinimize: 	Step increased G by 5.204170e-18, reducing alpha to 6.713324e-29.
FluidMinimize: 	Step increased G by 5.204170e-18, reducing alpha to 6.713324e-30.
FluidMinimize: 	Step increased G by 3.469447e-18, reducing alpha to 6.713324e-31.
FluidMinimize: 	Step increased G by 3.469447e-18, reducing alpha to 6.713324e-32.
FluidMinimize: 	Step failed to reduce G after 6 attempts. Quitting step.
FluidMinimize: 	Undoing step.
FluidMinimize: 	Step failed along negative gradient direction.
FluidMinimize: Probably at roundoff error limit. (Stopping)

Fluid minimization # 3 changed total free energy by 6.938894e-18 at t[s]:  12438.66

-------------------- Electronic Minimization # 3 ---------------------
	FillingsUpdate:  mu: -0.173600000  nElectrons: 339.441757
ElecMinimize: Iter:   0  G: -1761.126859258261902  |grad|_K:  8.993e-05  alpha:  1.000e+00
	FillingsUpdate:  mu: -0.173600000  nElectrons: 339.056951
	SubspaceRotationAdjust: set factor to 0.015
ElecMinimize: Iter:   1  G: -1761.208457072904594  |grad|_K:  1.182e-05  alpha:  1.867e-01  linmin: -1.071e-02  t[s]:  13089.71
	FillingsUpdate:  mu: -0.173600000  nElectrons: 339.027292
	SubspaceRotationAdjust: set factor to 0.0179
ElecMinimize: Iter:   2  G: -1761.211379536272943  |grad|_K:  5.493e-06  alpha:  3.882e-01  linmin: -9.159e-05  t[s]:  13546.91
	FillingsUpdate:  mu: -0.173600000  nElectrons: 339.031580
	SubspaceRotationAdjust: set factor to 0.0187
ElecMinimize: Iter:   3  G: -1761.212049147139624  |grad|_K:  4.548e-06  alpha:  4.146e-01  linmin: -6.066e-05  t[s]:  14001.51
	FillingsUpdate:  mu: -0.173600000  nElectrons: 339.014146
	SubspaceRotationAdjust: set factor to 0.0129
ElecMinimize: Iter:   4  G: -1761.212238126936199  |grad|_K:  4.018e-06  alpha:  1.706e-01  linmin: -5.906e-05  t[s]:  14459.35
	FillingsUpdate:  mu: -0.173600000  nElectrons: 339.022165
	SubspaceRotationAdjust: set factor to 0.0117
ElecMinimize: Iter:   5  G: -1761.212505512242160  |grad|_K:  2.447e-06  alpha:  3.092e-01  linmin: -2.119e-04  t[s]:  14919.01
	FillingsUpdate:  mu: -0.173600000  nElectrons: 339.018313
	SubspaceRotationAdjust: set factor to 0.0124
ElecMinimize: Iter:   6  G: -1761.212700449414115  |grad|_K:  1.888e-06  alpha:  6.079e-01  linmin:  8.654e-05  t[s]:  15378.97
	FillingsUpdate:  mu: -0.173600000  nElectrons: 339.022084
	SubspaceRotationAdjust: set factor to 0.0121
ElecMinimize: Iter:   7  G: -1761.212794806585180  |grad|_K:  1.601e-06  alpha:  4.953e-01  linmin: -2.563e-05  t[s]:  15836.48
	FillingsUpdate:  mu: -0.173600000  nElectrons: 339.015523
	SubspaceRotationAdjust: set factor to 0.0094
ElecMinimize: Iter:   8  G: -1761.212838317946989  |grad|_K:  1.495e-06  alpha:  3.171e-01  linmin: -7.212e-06  t[s]:  16293.54
	FillingsUpdate:  mu: -0.173600000  nElectrons: 339.019671
	SubspaceRotationAdjust: set factor to 0.00873
ElecMinimize: Iter:   9  G: -1761.212875043755275  |grad|_K:  9.771e-07  alpha:  3.072e-01  linmin: -4.495e-05  t[s]:  16752.10
	FillingsUpdate:  mu: -0.173600000  nElectrons: 339.019182
	SubspaceRotationAdjust: set factor to 0.0106
ElecMinimize: Iter:  10  G: -1761.212905024111024  |grad|_K:  8.014e-07  alpha:  5.868e-01  linmin:  1.308e-05  t[s]:  17211.35
	FillingsUpdate:  mu: -0.173600000  nElectrons: 339.016686
	SubspaceRotationAdjust: set factor to 0.0103
ElecMinimize: Iter:  11  G: -1761.212922558210721  |grad|_K:  7.077e-07  alpha:  5.102e-01  linmin:  1.870e-05  t[s]:  17674.10
	FillingsUpdate:  mu: -0.173600000  nElectrons: 339.019109
	SubspaceRotationAdjust: set factor to 0.00761
ElecMinimize: Iter:  12  G: -1761.212930772247091  |grad|_K:  5.789e-07  alpha:  3.067e-01  linmin:  7.070e-06  t[s]:  18134.01
	FillingsUpdate:  mu: -0.173600000  nElectrons: 339.017442
	SubspaceRotationAdjust: set factor to 0.00765
ElecMinimize: Iter:  13  G: -1761.212937847888497  |grad|_K:  3.655e-07  alpha:  3.947e-01  linmin:  3.316e-05  t[s]:  18596.06
	FillingsUpdate:  mu: -0.173600000  nElectrons: 339.017209
	SubspaceRotationAdjust: set factor to 0.0095
ElecMinimize: Iter:  14  G: -1761.212941558927923  |grad|_K:  2.800e-07  alpha:  5.190e-01  linmin: -2.382e-05  t[s]:  19052.63
	FillingsUpdate:  mu: -0.173600000  nElectrons: 339.018171
	SubspaceRotationAdjust: set factor to 0.00877
ElecMinimize: Iter:  15  G: -1761.212943454953347  |grad|_K:  2.689e-07  alpha:  4.513e-01  linmin: -7.631e-06  t[s]:  19511.99
	FillingsUpdate:  mu: -0.173600000  nElectrons: 339.017204
	SubspaceRotationAdjust: set factor to 0.00849
ElecMinimize: Iter:  16  G: -1761.212945318129414  |grad|_K:  2.726e-07  alpha:  4.818e-01  linmin: -1.855e-05  t[s]:  19969.56
	FillingsUpdate:  mu: -0.173600000  nElectrons: 339.017988
	SubspaceRotationAdjust: set factor to 0.00923
ElecMinimize: Iter:  17  G: -1761.212948150441434  |grad|_K:  3.186e-07  alpha:  7.120e-01  linmin: -9.285e-06  t[s]:  20429.56
	FillingsUpdate:  mu: -0.173600000  nElectrons: 339.018614
	SubspaceRotationAdjust: set factor to 0.00995
ElecMinimize: Iter:  18  G: -1761.212952327270159  |grad|_K:  3.827e-07  alpha:  7.686e-01  linmin: -1.192e-06  t[s]:  20889.85
	FillingsUpdate:  mu: -0.173600000  nElectrons: 339.017891
	SubspaceRotationAdjust: set factor to 0.00909
ElecMinimize: Iter:  19  G: -1761.212956978059992  |grad|_K:  4.030e-07  alpha:  5.931e-01  linmin:  6.546e-07  t[s]:  21347.99
	FillingsUpdate:  mu: -0.173600000  nElectrons: 339.019696
	SubspaceRotationAdjust: set factor to 0.00671
ElecMinimize: Iter:  20  G: -1761.212960142429665  |grad|_K:  3.331e-07  alpha:  3.644e-01  linmin:  2.345e-06  t[s]:  21806.53
	FillingsUpdate:  mu: -0.173600000  nElectrons: 339.019208
	SubspaceRotationAdjust: set factor to 0.00686
ElecMinimize: Iter:  21  G: -1761.212962611731882  |grad|_K:  2.299e-07  alpha:  4.160e-01  linmin:  1.277e-05  t[s]:  22268.42
	FillingsUpdate:  mu: -0.173600000  nElectrons: 339.019114
	SubspaceRotationAdjust: set factor to 0.00775
ElecMinimize: Iter:  22  G: -1761.212963862431252  |grad|_K:  1.617e-07  alpha:  4.426e-01  linmin: -6.311e-06  t[s]:  22725.32
	FillingsUpdate:  mu: -0.173600000  nElectrons: 339.019750
	SubspaceRotationAdjust: set factor to 0.00708
ElecMinimize: Iter:  23  G: -1761.212964455593465  |grad|_K:  1.223e-07  alpha:  4.235e-01  linmin:  4.590e-06  t[s]:  23185.77
ElecMinimize: Converged (|Delta G|<1.334809e-06 for 2 iters).
Setting wave functions to eigenvectors of Hamiltonian

Electronic minimization # 3 changed total free energy by -3.045555e-05 at t[s]:  23205.30

---------------------- Fluid Minimization # 4 -----------------------
FluidMinimize: Iter:   0  G: -0.006616901856642  |grad|_K:  1.547e-04  alpha:  1.000e+00
FluidMinimize: 	Step increased G by 6.938894e-18, reducing alpha to 4.050292e-26.
FluidMinimize: Iter:   1  G: -0.006616901856642  |grad|_K:  1.547e-04  alpha:  4.050e-26  linmin: -1.558e-01  cgtest:  1.000e+00  t[s]:  23206.42
FluidMinimize: Encountered beta<0, resetting CG.
FluidMinimize: Iter:   2  G: -0.006616901856642  |grad|_K:  1.547e-04  alpha:  4.050e-25  linmin: -1.558e-01  cgtest:  1.000e+00  t[s]:  23206.99
FluidMinimize: Iter:   3  G: -0.006616901856642  |grad|_K:  1.547e-04  alpha:  4.050e-25  linmin: -1.558e-01  cgtest:  1.000e+00  t[s]:  23207.54
FluidMinimize: Encountered beta<0, resetting CG.
FluidMinimize: 	Step increased G by 1.214306e-17, reducing alpha to 4.050292e-26.
FluidMinimize: 	Step increased G by 2.255141e-17, reducing alpha to 4.050292e-27.
FluidMinimize: 	Step increased G by 2.255141e-17, reducing alpha to 4.050292e-28.
FluidMinimize: 	Step increased G by 2.081668e-17, reducing alpha to 4.050292e-29.
FluidMinimize: 	Step increased G by 1.040834e-17, reducing alpha to 4.050292e-30.
FluidMinimize: 	Step increased G by 1.040834e-17, reducing alpha to 4.050292e-31.
FluidMinimize: 	Step failed to reduce G after 6 attempts. Quitting step.
FluidMinimize: 	Undoing step.
FluidMinimize: 	Step failed along negative gradient direction.
FluidMinimize: Probably at roundoff error limit. (Stopping)

Fluid minimization # 4 changed total free energy by -1.908196e-17 at t[s]:  23210.04

-------------------- Electronic Minimization # 4 ---------------------
	FillingsUpdate:  mu: -0.173600000  nElectrons: 338.843258
ElecMinimize: Iter:   0  G: -1761.196356677766744  |grad|_K:  4.007e-05  alpha:  1.000e+00
	FillingsUpdate:  mu: -0.173600000  nElectrons: 339.013523
	SubspaceRotationAdjust: set factor to 0.0149
ElecMinimize: Iter:   1  G: -1761.212379616156568  |grad|_K:  4.306e-06  alpha:  1.860e-01  linmin: -2.672e-03  t[s]:  23859.35
	FillingsUpdate:  mu: -0.173600000  nElectrons: 339.021892
	SubspaceRotationAdjust: set factor to 0.0155
ElecMinimize: Iter:   2  G: -1761.212748916137798  |grad|_K:  2.035e-06  alpha:  3.718e-01  linmin:  2.228e-05  t[s]:  24316.85
	FillingsUpdate:  mu: -0.173600000  nElectrons: 339.021423
	SubspaceRotationAdjust: set factor to 0.0176
ElecMinimize: Iter:   3  G: -1761.212845572843662  |grad|_K:  1.426e-06  alpha:  4.361e-01  linmin:  5.839e-05  t[s]:  24775.10
	FillingsUpdate:  mu: -0.173600000  nElectrons: 339.025608
	SubspaceRotationAdjust: set factor to 0.0128
ElecMinimize: Iter:   4  G: -1761.212888624668949  |grad|_K:  1.610e-06  alpha:  3.958e-01  linmin: -2.870e-05  t[s]:  25232.92
	FillingsUpdate:  mu: -0.173600000  nElectrons: 339.020126
	SubspaceRotationAdjust: set factor to 0.00816
ElecMinimize: Iter:   5  G: -1761.212910286471015  |grad|_K:  9.811e-07  alpha:  1.560e-01  linmin: -4.009e-05  t[s]:  25687.73
ElecMinimize: 	Predicted alpha/alphaT>3.000000, increasing alphaT to 4.681130e-01.
	FillingsUpdate:  mu: -0.173600000  nElectrons: 339.019829
	SubspaceRotationAdjust: set factor to 0.0117
ElecMinimize: Iter:   6  G: -1761.212934715027131  |grad|_K:  7.281e-07  alpha:  4.741e-01  linmin:  2.714e-06  t[s]:  26256.96
	FillingsUpdate:  mu: -0.173600000  nElectrons: 339.022119
	SubspaceRotationAdjust: set factor to 0.00977
ElecMinimize: Iter:   7  G: -1761.212944377305348  |grad|_K:  6.036e-07  alpha:  3.406e-01  linmin: -9.270e-06  t[s]:  26712.86
	FillingsUpdate:  mu: -0.173600000  nElectrons: 339.019924
	SubspaceRotationAdjust: set factor to 0.00789
ElecMinimize: Iter:   8  G: -1761.212950284725594  |grad|_K:  4.384e-07  alpha:  3.030e-01  linmin: -2.134e-06  t[s]:  27165.54
	FillingsUpdate:  mu: -0.173600000  nElectrons: 339.020340
	SubspaceRotationAdjust: set factor to 0.01
ElecMinimize: Iter:   9  G: -1761.212955113107682  |grad|_K:  3.292e-07  alpha:  4.694e-01  linmin: -6.038e-05  t[s]:  27617.68
	FillingsUpdate:  mu: -0.173600000  nElectrons: 339.020665
	SubspaceRotationAdjust: set factor to 0.0113
ElecMinimize: Iter:  10  G: -1761.212958695681436  |grad|_K:  3.267e-07  alpha:  6.176e-01  linmin: -2.753e-05  t[s]:  28075.28
	FillingsUpdate:  mu: -0.173600000  nElectrons: 339.019200
	SubspaceRotationAdjust: set factor to 0.00956
ElecMinimize: Iter:  11  G: -1761.212961049892556  |grad|_K:  3.266e-07  alpha:  4.120e-01  linmin:  5.280e-06  t[s]:  28535.28
	FillingsUpdate:  mu: -0.173600000  nElectrons: 339.020112
	SubspaceRotationAdjust: set factor to 0.00768
ElecMinimize: Iter:  12  G: -1761.212962920402560  |grad|_K:  2.398e-07  alpha:  3.275e-01  linmin: -7.836e-06  t[s]:  28991.88
	FillingsUpdate:  mu: -0.173600000  nElectrons: 339.019787
	SubspaceRotationAdjust: set factor to 0.00877
ElecMinimize: Iter:  13  G: -1761.212964431390446  |grad|_K:  1.675e-07  alpha:  4.913e-01  linmin: -2.303e-05  t[s]:  29450.28
	FillingsUpdate:  mu: -0.173600000  nElectrons: 339.019504
	SubspaceRotationAdjust: set factor to 0.00955
ElecMinimize: Iter:  14  G: -1761.212965121223306  |grad|_K:  1.236e-07  alpha:  4.596e-01  linmin:  1.655e-04  t[s]:  29909.53
	FillingsUpdate:  mu: -0.173600000  nElectrons: 339.019888
	SubspaceRotationAdjust: set factor to 0.00913
ElecMinimize: Iter:  15  G: -1761.212965456531720  |grad|_K:  1.065e-07  alpha:  4.126e-01  linmin: -7.557e-05  t[s]:  30370.44
	FillingsUpdate:  mu: -0.173600000  nElectrons: 339.019546
	SubspaceRotationAdjust: set factor to 0.00914
ElecMinimize: Iter:  16  G: -1761.212965713966469  |grad|_K:  9.659e-08  alpha:  4.237e-01  linmin:  3.108e-04  t[s]:  30830.48
	FillingsUpdate:  mu: -0.173600000  nElectrons: 339.019735
	SubspaceRotationAdjust: set factor to 0.0104
ElecMinimize: Iter:  17  G: -1761.212966019516671  |grad|_K:  9.646e-08  alpha:  6.121e-01  linmin: -3.056e-04  t[s]:  31288.67
	FillingsUpdate:  mu: -0.173600000  nElectrons: 339.019785
	SubspaceRotationAdjust: set factor to 0.0116
ElecMinimize: Iter:  18  G: -1761.212966404598092  |grad|_K:  1.079e-07  alpha:  7.661e-01  linmin: -8.975e-06  t[s]:  31739.86
	FillingsUpdate:  mu: -0.173600000  nElectrons: 339.019519
	SubspaceRotationAdjust: set factor to 0.0113
ElecMinimize: Iter:  19  G: -1761.212966788505355  |grad|_K:  1.210e-07  alpha:  6.162e-01  linmin: -1.476e-06  t[s]:  32199.46
	FillingsUpdate:  mu: -0.173600000  nElectrons: 339.020021
	SubspaceRotationAdjust: set factor to 0.00864
ElecMinimize: Iter:  20  G: -1761.212967044963762  |grad|_K:  1.109e-07  alpha:  3.275e-01  linmin:  1.041e-05  t[s]:  32655.25
	FillingsUpdate:  mu: -0.173600000  nElectrons: 339.019774
	SubspaceRotationAdjust: set factor to 0.00812
ElecMinimize: Iter:  21  G: -1761.212967298968806  |grad|_K:  8.242e-08  alpha:  3.858e-01  linmin:  2.911e-05  t[s]:  33112.86
ElecMinimize: Converged (|Delta G|<3.045555e-07 for 2 iters).
Setting wave functions to eigenvectors of Hamiltonian

Electronic minimization # 4 changed total free energy by -2.843375e-06 at t[s]:  33132.95

Fluid<-->Electron self-consistency loop converged to 1.000000e-05 hartrees after 4 minimization pairs at t[s]:  33132.95.

# Ionic positions in lattice coordinates:
ion O   0.734365833606004   0.483238663716566   0.270127788799843 1
ion O   0.408254358852817   0.716994453060448   0.269487093756179 1
ion C   0.502316527432381   0.503526794531110   0.251942766359485 1
ion H   0.388649677358853   0.342613093530342   0.260885665747588 1
ion H   0.796216294760087   0.331122684130042   0.252200938052181 1
ion H   0.244804610628358   0.726361557379949   0.251469826041161 1
ion Pt   0.000000000000000   0.000000000000000  -0.166700000000000 0
ion Pt   0.500000000000000   0.500000000000000  -0.166700000000000 0
ion Pt   0.000000000000000   0.500000000000000  -0.166700000000000 0
ion Pt   0.500000000000000   0.000000000000000  -0.166700000000000 0
ion Pt   0.750000000000000   0.250000000000000  -0.083300000000000 0
ion Pt   0.250000000000000   0.750000000000000  -0.083300000000000 0
ion Pt   0.250000000000000   0.250000000000000  -0.083300000000000 0
ion Pt   0.750000000000000   0.750000000000000  -0.083300000000000 0
ion Pt   0.499122077355652  -0.000395794569135  -0.000217742937035 1
ion Pt  -0.000563238459802  -0.000443869891510  -0.001231666166895 1
ion Pt  -0.000617536222446   0.499528967245509  -0.000022643569587 1
ion Pt   0.499763888962354   0.499842768272826  -0.000111222078555 1
ion Pt   0.750539864729930   0.246939748036644   0.082166018249645 1
ion Pt   0.248008053829172   0.752218918941986   0.082297869312607 1
ion Pt   0.246678200596523   0.246944612920580   0.082172306049413 1
ion Pt   0.751074967506254   0.751439317701884   0.082524207873744 1
ion Pt  -0.000764907948195   0.001610525782702   0.165179629209218 1
ion Pt   0.003262457924930   0.501647638303626   0.162503706178840 1
ion Pt   0.501486986798915   0.001064023840844   0.163150374043031 1
ion Pt   0.498552343512293   0.496714006912893   0.162744491258585 1


# Forces in Lattice coordinates:
force O  -0.001785435763170  -0.030200390692518   0.199527689562416 1
force O  -0.013702472055265   0.005358738627048   0.241576207617950 1
force C   0.005708022894633  -0.017287268860028  -0.345099558298528 1
force H  -0.009249831144084  -0.000018805308023   0.048775771294093 1
force H   0.019014591128848   0.015174378679613   0.173917819273090 1
force H  -0.000400128945120   0.030529710462261   0.085691424177540 1
force Pt   0.000089149747707  -0.000124037042348   0.300661811931889 0
force Pt   0.000443473926189   0.000371357424068   0.318362309542032 0
force Pt   0.000553388261328   0.000246292945595   0.306026703786378 0
force Pt   0.000325089619101   0.000320613698605   0.301137624696897 0
force Pt  -0.009175875481100   0.007138582500079  -0.356594129193658 0
force Pt   0.005012425412765  -0.010968439377508  -0.353696881252353 0
force Pt   0.005178184425900   0.008613435894917  -0.357543124709613 0
force Pt  -0.008574126368308  -0.009708411834817  -0.351751095658802 0
force Pt   0.001520485260478  -0.001682191995083  -0.103295195943649 1
force Pt  -0.004491834807126  -0.003598648066267  -0.051173225345050 1
force Pt  -0.000670638747526   0.001341120347044  -0.101184051665514 1
force Pt  -0.002886880667774  -0.001005923775690  -0.069557642428903 1
force Pt  -0.009336340606974   0.017086823288868  -0.076183767793162 1
force Pt   0.015520289711837  -0.011890032004745  -0.075440858080656 1
force Pt   0.017436418166469   0.014315792162758  -0.089622311698767 1
force Pt  -0.011411105799178  -0.013871322992873  -0.075838860040877 1
force Pt   0.003906527422911  -0.001706074737070  -0.083027308691982 1
force Pt  -0.011253955905946  -0.002756348686142  -0.064892319203104 1
force Pt  -0.005184468071253  -0.008028222080992  -0.091554369652953 1
force Pt   0.014143045228466   0.012992554607805   0.526241209820007 1

# Energy components:
   A_diel =       -0.0066668457033557
   Eewald =    27876.1716724824254925
       EH =    29487.6707427172113967
     Eloc =   -59506.0001740801380947
      Enl =      -15.8183187442289466
      Exc =     -576.2880287292044841
 Exc_core =      324.9917008584772589
       KE =      589.4471702566963813
  MuShift =       -0.0006813539939625
-------------------------------------
     Etot =    -1819.8325834384629616
       TS =        0.2342166759606920
-------------------------------------
        F =    -1820.0668001144235859
      muN =      -58.8538328154548225
-------------------------------------
        G =    -1761.2129672989688061

IonicMinimize: Iter:   0  G: -1761.212967298968806  |grad|_K:  2.567e-03  t[s]:  33187.34
IonicMinimize: None of the convergence criteria satisfied after 0 iterations.

#--- Lowdin population analysis ---
# oxidation-state O -0.368 -0.361
# oxidation-state C +0.316
# oxidation-state H +0.234 +0.425 +0.425
# oxidation-state Pt +0.024 +0.024 +0.024 +0.024 -0.005 -0.005 -0.005 -0.005 +0.013 +0.012 +0.013 +0.015 -0.019 -0.020 -0.019 -0.022 -0.087 -0.105 -0.054 -0.104


Dumping '100_1-Solvated.ionpos' ... done
Dumping '100_1-Solvated.n' ... done
Dumping '100_1-Solvated.eigStats' ... 
	eMin: -2.126106 at state 0 ( [ +0.000000 +0.000000 +0.000000 ] spin 0 )
	HOMO: -0.173930 at state 4 ( [ +0.250000 +0.250000 +0.000000 ] spin 0 )
	mu  : -0.173600
	LUMO: -0.173280 at state 3 ( [ +0.250000 +0.000000 +0.000000 ] spin 0 )
	eMax: +0.352495 at state 2 ( [ +0.000000 +0.500000 +0.000000 ] spin 0 )
	HOMO-LUMO gap: +0.000651
	Optical gap  : +0.000835 at state 1 ( [ +0.000000 +0.250000 +0.000000 ] spin 0 )
Dumping '100_1-Solvated.Ecomponents' ... done
End date and time: Fri Apr 26 12:30:52 2019  (Duration: 0-9:14:14.02)
Done!
