--------------------------------------------------------------------------
Initialization of PSM library failed.

  Error: PSM is in the finalized state
--------------------------------------------------------------------------
[node2009][[28880,1],0][btl_openib.c:880:mca_btl_openib_add_procs] could not prepare openib device for use
--------------------------------------------------------------------------
The OpenFabrics (openib) BTL failed to initialize while trying to
allocate some locked memory.  This typically can indicate that the
memlock limits are set too low.  For most HPC installations, the
memlock limits should be set to "unlimited".  The failure occured
here:

  Local host:    node2009
  OMPI source:   btl_openib.c:753
  Function:      ompi_free_list_init_ex_new()
  Device:        qib0
  Memlock limit: 65536

You may need to consult with your system administrator to get this
problem fixed.  This FAQ entry on the Open MPI web site may also be
helpful:

    http://www.open-mpi.org/faq/?category=openfabrics#ib-locked-pages
--------------------------------------------------------------------------

*************** JDFTx 1.4.2 (git hash 74b6e54) ***************

Start date and time: Wed Apr 24 10:28:07 2019
Executable /home/jfm343/JDFTXDIR/build/jdftx with command-line: -i Vacuum.in
Running on hosts (process indices):  node2009.physics.cornell.edu (0)
Divided in process groups (process indices):  0 (0)
Resource initialization completed at t[s]:      0.00
Run totals: 1 processes, 12 threads, 0 GPUs


Input parsed successfully to the following command list (including defaults):

basis kpoint-dependent
coords-type Lattice
core-overlap-check vector
coulomb-interaction Slab 001
coulomb-truncation-embed 0 0 0
davidson-band-ratio 1.1
dump End State IonicPositions ElecDensity EigStats Ecomponents
dump-name 100_2-Vacuum.$VAR
elec-cutoff 20 100
elec-eigen-algo Davidson
elec-ex-corr gga-PBEsol
elec-smearing Fermi 0.01
electronic-minimize  \
	dirUpdateScheme      FletcherReeves \
	linminMethod         DirUpdateRecommended \
	nIterations          200 \
	history              15 \
	knormThreshold       0 \
	energyDiffThreshold  1e-08 \
	nEnergyDiff          2 \
	alphaTstart          1 \
	alphaTmin            1e-10 \
	updateTestStepSize   yes \
	alphaTreduceFactor   0.1 \
	alphaTincreaseFactor 3 \
	nAlphaAdjustMax      3 \
	wolfeEnergy          0.0001 \
	wolfeGradient        0.9 \
	fdTest               no
exchange-regularization WignerSeitzTruncated
fluid None
fluid-ex-corr lda-TF lda-PZ
fluid-gummel-loop 10 1.000000e-05
fluid-minimize  \
	dirUpdateScheme      PolakRibiere \
	linminMethod         DirUpdateRecommended \
	nIterations          100 \
	history              15 \
	knormThreshold       0 \
	energyDiffThreshold  0 \
	nEnergyDiff          2 \
	alphaTstart          1 \
	alphaTmin            1e-10 \
	updateTestStepSize   yes \
	alphaTreduceFactor   0.1 \
	alphaTincreaseFactor 3 \
	nAlphaAdjustMax      3 \
	wolfeEnergy          0.0001 \
	wolfeGradient        0.9 \
	fdTest               no
fluid-solvent H2O 55.338 ScalarEOS \
	epsBulk 78.4 \
	pMol 0.92466 \
	epsInf 1.77 \
	Pvap 1.06736e-10 \
	sigmaBulk 4.62e-05 \
	Rvdw 2.61727 \
	Res 1.42 \
	tauNuc 343133 \
	omegaEl 0.55124 \
	gammaEl 0.257245
forces-output-coords Positions
ion O   0.500000000000000   0.314000000000000   0.273000000000000 1
ion C   0.500000000000000   0.500000000000000   0.246000000000000 1
ion H   0.500000000000000   0.679000000000000   0.266000000000000 1
ion Pt   0.000000000000000   0.000000000000000  -0.166700000000000 0
ion Pt   0.500000000000000   0.500000000000000  -0.166700000000000 0
ion Pt   0.000000000000000   0.500000000000000  -0.166700000000000 0
ion Pt   0.500000000000000   0.000000000000000  -0.166700000000000 0
ion Pt   0.750000000000000   0.250000000000000  -0.083300000000000 0
ion Pt   0.250000000000000   0.750000000000000  -0.083300000000000 0
ion Pt   0.250000000000000   0.250000000000000  -0.083300000000000 0
ion Pt   0.750000000000000   0.750000000000000  -0.083300000000000 0
ion Pt   0.500000000000000   0.000000000000000   0.000000000000000 1
ion Pt   0.000000000000000   0.000000000000000   0.000000000000000 1
ion Pt   0.000000000000000   0.500000000000000   0.000000000000000 1
ion Pt   0.500000000000000   0.500000000000000   0.000000000000000 1
ion Pt   0.750000000000000   0.250000000000000   0.083300000000000 1
ion Pt   0.250000000000000   0.750000000000000   0.083300000000000 1
ion Pt   0.250000000000000   0.250000000000000   0.083300000000000 1
ion Pt   0.750000000000000   0.750000000000000   0.083300000000000 1
ion Pt   0.000000000000000   0.000000000000000   0.166700000000000 1
ion Pt   0.000000000000000   0.500000000000000   0.166700000000000 1
ion Pt   0.500000000000000   0.000000000000000   0.166700000000000 1
ion Pt   0.500000000000000   0.500000000000000   0.166700000000000 1
ion-species GBRV/$ID_pbesol.uspp
ion-width 0
ionic-minimize  \
	dirUpdateScheme      L-BFGS \
	linminMethod         DirUpdateRecommended \
	nIterations          5 \
	history              15 \
	knormThreshold       0.0001 \
	energyDiffThreshold  1e-06 \
	nEnergyDiff          2 \
	alphaTstart          1 \
	alphaTmin            1e-10 \
	updateTestStepSize   yes \
	alphaTreduceFactor   0.1 \
	alphaTincreaseFactor 3 \
	nAlphaAdjustMax      3 \
	wolfeEnergy          0.0001 \
	wolfeGradient        0.9 \
	fdTest               no
kpoint   0.000000000000   0.000000000000   0.000000000000  1.00000000000000
kpoint-folding 4 4 1 
latt-move-scale 1 1 1
latt-scale 1 1 1 
lattice Tetragonal 10.4793 44.446
lattice-minimize  \
	dirUpdateScheme      L-BFGS \
	linminMethod         DirUpdateRecommended \
	nIterations          0 \
	history              15 \
	knormThreshold       0 \
	energyDiffThreshold  1e-06 \
	nEnergyDiff          2 \
	alphaTstart          1 \
	alphaTmin            1e-10 \
	updateTestStepSize   yes \
	alphaTreduceFactor   0.1 \
	alphaTincreaseFactor 3 \
	nAlphaAdjustMax      3 \
	wolfeEnergy          0.0001 \
	wolfeGradient        0.9 \
	fdTest               no
lcao-params -1 1e-06 0.01
pcm-variant GLSSA13
spintype no-spin
subspace-rotation-factor 1 yes
symmetries automatic
symmetry-threshold 0.0001



---------- Setting up symmetries ----------

Found 16 point-group symmetries of the bravais lattice
Found 2 space-group symmetries with basis
Applied RMS atom displacement 0 bohrs to make symmetries exact.

---------- Initializing the Grid ----------
R = 
[    10.4793          0          0  ]
[          0    10.4793          0  ]
[          0          0     44.446  ]
unit cell volume = 4880.87
G =
[   0.599581          0          0  ]
[          0   0.599581          0  ]
[          0          0   0.141367  ]
Minimum fftbox size, Smin = [  48  48  204  ]
Chosen fftbox size, S = [  48  48  210  ]

---------- Initializing tighter grid for wavefunction operations ----------
R = 
[    10.4793          0          0  ]
[          0    10.4793          0  ]
[          0          0     44.446  ]
unit cell volume = 4880.87
G =
[   0.599581          0          0  ]
[          0   0.599581          0  ]
[          0          0   0.141367  ]
Minimum fftbox size, Smin = [  44  44  180  ]
Chosen fftbox size, S = [  48  48  180  ]

---------- Exchange Correlation functional ----------
Initalized PBEsol GGA exchange.
Initalized PBEsol GGA correlation.

---------- Setting up pseudopotentials ----------
Width of ionic core gaussian charges (only for fluid interactions / plotting) set to 0

Reading pseudopotential file '/home/jfm343/JDFTXDIR/build/pseudopotentials/GBRV/o_pbesol.uspp':
  Title: O.  Created by USPP 7.3.6 on 3-2-2014
  Reference state energy: -15.849885.  6 valence electrons in orbitals:
    |200>  occupation: 2  eigenvalue: -0.873214
    |210>  occupation: 4  eigenvalue: -0.330058
  lMax: 2  lLocal: 2  QijEcut: 6
  5 projectors sampled on a log grid with 511 points:
    l: 0  eig: -0.873214  rCut: 1.25
    l: 0  eig: 0.000000  rCut: 1.25
    l: 1  eig: -0.330058  rCut: 1.25
    l: 1  eig: 0.000000  rCut: 1.25
    l: 2  eig: 1.000000  rCut: 1.25
  Partial core density with radius 0.7
  Transforming core density to a uniform radial grid of dG=0.02 with 1265 points.
  Transforming local potential to a uniform radial grid of dG=0.02 with 1265 points.
  Transforming nonlocal projectors to a uniform radial grid of dG=0.02 with 432 points.
  Transforming density augmentations to a uniform radial grid of dG=0.02 with 1265 points.
  Transforming atomic orbitals to a uniform radial grid of dG=0.02 with 432 points.
  Core radius for overlap checks: 1.25 bohrs.

Reading pseudopotential file '/home/jfm343/JDFTXDIR/build/pseudopotentials/GBRV/c_pbesol.uspp':
  Title: C.  Created by USPP 7.3.6 on 3-2-2014
  Reference state energy: -5.383511.  4 valence electrons in orbitals:
    |200>  occupation: 2  eigenvalue: -0.501126
    |210>  occupation: 2  eigenvalue: -0.192448
  lMax: 1  lLocal: 2  QijEcut: 5
  4 projectors sampled on a log grid with 503 points:
    l: 0  eig: -0.501126  rCut: 1.3
    l: 0  eig: 0.000000  rCut: 1.3
    l: 1  eig: -0.192448  rCut: 1.3
    l: 1  eig: 0.000000  rCut: 1.3
  Partial core density with radius 1.1
  Transforming core density to a uniform radial grid of dG=0.02 with 1265 points.
  Transforming local potential to a uniform radial grid of dG=0.02 with 1265 points.
  Transforming nonlocal projectors to a uniform radial grid of dG=0.02 with 432 points.
  Transforming density augmentations to a uniform radial grid of dG=0.02 with 1265 points.
  Transforming atomic orbitals to a uniform radial grid of dG=0.02 with 432 points.
  Core radius for overlap checks: 1.30 bohrs.

Reading pseudopotential file '/home/jfm343/JDFTXDIR/build/pseudopotentials/GBRV/h_pbesol.uspp':
  Title: H.  Created by USPP 7.3.6 on 22-9-15
  Reference state energy: -0.449841.  1 valence electrons in orbitals:
    |100>  occupation: 1  eigenvalue: -0.232690
  lMax: 0  lLocal: 1  QijEcut: 6
  2 projectors sampled on a log grid with 395 points:
    l: 0  eig: -0.232690  rCut: 1.2
    l: 0  eig: 1.000000  rCut: 1.2
  Transforming local potential to a uniform radial grid of dG=0.02 with 1265 points.
  Transforming nonlocal projectors to a uniform radial grid of dG=0.02 with 432 points.
  Transforming density augmentations to a uniform radial grid of dG=0.02 with 1265 points.
  Transforming atomic orbitals to a uniform radial grid of dG=0.02 with 432 points.
  Core radius for overlap checks: 1.20 bohrs.

Reading pseudopotential file '/home/jfm343/JDFTXDIR/build/pseudopotentials/GBRV/pt_pbesol.uspp':
  Title: Pt.  Created by USPP 7.3.6 on 22-9-15
  Reference state energy: -104.899005.  16 valence electrons in orbitals:
    |510>  occupation: 6  eigenvalue: -2.158847
    |520>  occupation: 9.5  eigenvalue: -0.336311
    |600>  occupation: 0  eigenvalue: -0.320324
    |610>  occupation: 0  eigenvalue: -0.119800
  lMax: 2  lLocal: 3  QijEcut: 5.5
  6 projectors sampled on a log grid with 745 points:
    l: 0  eig: -0.320324  rCut: 2.45
    l: 0  eig: 1.500000  rCut: 2.45
    l: 1  eig: -2.158847  rCut: 1.6
    l: 1  eig: -0.119800  rCut: 1.6
    l: 2  eig: -0.500000  rCut: 1.6
    l: 2  eig: -0.336311  rCut: 1.6
  Partial core density with radius 1.1
  Transforming core density to a uniform radial grid of dG=0.02 with 1265 points.
  Transforming local potential to a uniform radial grid of dG=0.02 with 1265 points.
  Transforming nonlocal projectors to a uniform radial grid of dG=0.02 with 432 points.
  Transforming density augmentations to a uniform radial grid of dG=0.02 with 1265 points.
  Transforming atomic orbitals to a uniform radial grid of dG=0.02 with 432 points.
  Core radius for overlap checks: 2.45 bohrs.

Initialized 4 species with 23 total atoms.

Folded 1 k-points by 4x4x1 to 16 k-points.

---------- Setting up k-points, bands, fillings ----------
Adding inversion symmetry to k-mesh for non-inversion-symmetric unit cell.
Reduced to 9 k-points under symmetry. 
Computing the number of bands and number of electrons
Calculating initial fillings.
nElectrons: 331.000000   nBands: 249   nStates: 9

----- Setting up reduced wavefunction bases (one per k-point) -----
average nbasis = 20861.812 , ideal nbasis = 20851.448

---------- Setting up coulomb interaction ----------
Setting up double-sized grid for truncated Coulomb potentials:
R = 
[    10.4793          0          0  ]
[          0    10.4793          0  ]
[          0          0     88.892  ]
unit cell volume = 9761.74
G =
[   0.599581          0          0  ]
[          0   0.599581          0  ]
[          0          0  0.0706834  ]
Chosen fftbox size, S = [  48  48  420  ]
Integer grid location selected as the embedding center:
   Grid: [  0  0  0  ]
   Lattice: [  0  0  0  ]
   Cartesian: [  0  0  0  ]
Constructing Wigner-Seitz cell: 6 faces (6 quadrilaterals, 0 hexagons)
Range-separation parameter for embedded mesh potentials due to point charges: 0.589462 bohrs.
Initialized slab truncation along lattice direction 001

---------- Setting up 2D ewald sum ----------
Optimum gaussian width for ewald sums = 6.251509 bohr.
Real space sums over 225 unit cells with max indices [  7  7  0  ]
Reciprocal space sums over 81 terms with max indices [  4  4  0  ]

---------- Allocating electronic variables ----------
Initializing wave functions:  linear combination of atomic orbitals
O pseudo-atom occupations:   s ( 2 )  p ( 4 )
C pseudo-atom occupations:   s ( 2 )  p ( 2 )
H pseudo-atom occupations:   s ( 1 )
Pt pseudo-atom occupations:   s ( 0 )  p ( 6 0 )  d ( 10 )
	FillingsUpdate:  mu: -2.567741708  nElectrons: 331.000000
LCAOMinimize: Iter:   0  F: -1787.9894299133029563  |grad|_K:  3.668e-02  alpha:  1.000e+00
LCAOMinimize: 	Step increased F by 6.992534e+02, reducing alpha to 2.098112e-02.
	FillingsUpdate:  mu: -1.235557089  nElectrons: 331.000000
LCAOMinimize: Iter:   1  F: -1792.6952151596133263  |grad|_K:  5.260e-02  alpha:  2.098e-02  linmin:  1.094e-01  cgtest: -3.327e-01  t[s]:    397.41
	FillingsUpdate:  mu: -1.078024637  nElectrons: 331.000000
LCAOMinimize: Iter:   2  F: -1792.7059419150966733  |grad|_K:  5.512e-02  alpha:  7.532e-04  linmin:  4.342e-03  cgtest:  9.896e-01  t[s]:    494.28
LCAOMinimize: 	Predicted alpha/alphaT>3.000000, increasing alphaT to 2.259588e-03.
LCAOMinimize: 	Predicted alpha/alphaT>3.000000, increasing alphaT to 6.778763e-03.
	FillingsUpdate:  mu: -1.101139794  nElectrons: 331.000000
LCAOMinimize: Iter:   3  F: -1798.4305081167124172  |grad|_K:  1.156e-02  alpha:  6.702e-03  linmin:  1.075e-01  cgtest: -3.973e-01  t[s]:    641.47
LCAOMinimize: 	Predicted alpha/alphaT>3.000000, increasing alphaT to 2.010466e-02.
LCAOMinimize: 	Predicted alpha/alphaT>3.000000, increasing alphaT to 6.031397e-02.
	FillingsUpdate:  mu: -0.173233717  nElectrons: 331.000000
LCAOMinimize: Iter:   4  F: -1800.0737922049302142  |grad|_K:  1.825e-02  alpha:  5.336e-02  linmin:  1.254e-02  cgtest:  5.310e-01  t[s]:    787.82
	FillingsUpdate:  mu: -0.171083038  nElectrons: 331.000000
LCAOMinimize: Iter:   5  F: -1800.8165522179804157  |grad|_K:  9.147e-03  alpha:  8.375e-03  linmin: -6.254e-03  cgtest: -2.305e-03  t[s]:    883.69
LCAOMinimize: 	Predicted alpha/alphaT>3.000000, increasing alphaT to 2.512499e-02.
	FillingsUpdate:  mu: -0.465902274  nElectrons: 331.000000
LCAOMinimize: Iter:   6  F: -1801.7306204361200344  |grad|_K:  3.086e-03  alpha:  3.777e-02  linmin: -1.735e-02  cgtest: -1.813e-01  t[s]:   1005.20
	FillingsUpdate:  mu: -0.118632338  nElectrons: 331.000000
LCAOMinimize: Iter:   7  F: -1802.0001120868964790  |grad|_K:  2.743e-03  alpha:  1.091e-01  linmin:  5.191e-02  cgtest: -1.713e-01  t[s]:   1100.92
	FillingsUpdate:  mu: -0.101893255  nElectrons: 331.000000
LCAOMinimize: Iter:   8  F: -1802.1204904000705938  |grad|_K:  3.211e-03  alpha:  8.015e-02  linmin: -1.893e-03  cgtest:  2.155e-01  t[s]:   1197.19
	FillingsUpdate:  mu: -0.141697049  nElectrons: 331.000000
LCAOMinimize: Iter:   9  F: -1802.1574347259108890  |grad|_K:  2.932e-03  alpha:  1.344e-02  linmin:  7.836e-03  cgtest: -9.149e-02  t[s]:   1291.06
LCAOMinimize: 	Predicted alpha/alphaT>3.000000, increasing alphaT to 4.032937e-02.
	FillingsUpdate:  mu: -0.178432727  nElectrons: 331.000000
LCAOMinimize: Iter:  10  F: -1802.2948519208682683  |grad|_K:  2.262e-03  alpha:  5.928e-02  linmin: -7.972e-03  cgtest:  8.241e-01  t[s]:   1412.36
LCAOMinimize: Encountered beta<0, resetting CG.
	FillingsUpdate:  mu: -0.198862603  nElectrons: 331.000000
LCAOMinimize: Iter:  11  F: -1802.3065462657064018  |grad|_K:  1.054e-03  alpha:  8.040e-03  linmin: -7.286e-03  cgtest:  2.326e-02  t[s]:   1508.63
LCAOMinimize: 	Predicted alpha/alphaT>3.000000, increasing alphaT to 2.412038e-02.
LCAOMinimize: 	Predicted alpha/alphaT>3.000000, increasing alphaT to 7.236114e-02.
	FillingsUpdate:  mu: -0.162023367  nElectrons: 331.000000
LCAOMinimize: Iter:  12  F: -1802.3350517324324755  |grad|_K:  1.066e-03  alpha:  9.158e-02  linmin:  1.037e-02  cgtest: -1.773e-01  t[s]:   1656.94
	FillingsUpdate:  mu: -0.181497362  nElectrons: 331.000000
LCAOMinimize: Iter:  13  F: -1802.3435403367238905  |grad|_K:  1.351e-03  alpha:  2.889e-02  linmin:  2.415e-03  cgtest: -1.186e-02  t[s]:   1756.14
	FillingsUpdate:  mu: -0.223122323  nElectrons: 331.000000
LCAOMinimize: Iter:  14  F: -1802.3504873118536125  |grad|_K:  4.749e-04  alpha:  1.364e-02  linmin: -3.107e-03  cgtest:  1.015e-01  t[s]:   1852.38
LCAOMinimize: 	Predicted alpha/alphaT>3.000000, increasing alphaT to 4.090610e-02.
	FillingsUpdate:  mu: -0.249662980  nElectrons: 331.000000
LCAOMinimize: Iter:  15  F: -1802.3568200355912268  |grad|_K:  6.609e-04  alpha:  9.940e-02  linmin:  3.432e-04  cgtest: -2.051e-02  t[s]:   1977.21
	FillingsUpdate:  mu: -0.253302153  nElectrons: 331.000000
LCAOMinimize: Iter:  16  F: -1802.3580628118502318  |grad|_K:  3.784e-04  alpha:  9.861e-03  linmin: -6.045e-03  cgtest:  6.969e-02  t[s]:   2075.23
LCAOMinimize: 	Predicted alpha/alphaT>3.000000, increasing alphaT to 2.958226e-02.
	FillingsUpdate:  mu: -0.240728390  nElectrons: 331.000000
LCAOMinimize: Iter:  17  F: -1802.3597826778450326  |grad|_K:  2.517e-04  alpha:  4.169e-02  linmin: -4.484e-04  cgtest: -8.621e-02  t[s]:   2195.86
	FillingsUpdate:  mu: -0.239645236  nElectrons: 331.000000
LCAOMinimize: Iter:  18  F: -1802.3604951845281903  |grad|_K:  4.035e-04  alpha:  3.992e-02  linmin:  1.273e-04  cgtest:  5.370e-03  t[s]:   2291.09
	FillingsUpdate:  mu: -0.244158922  nElectrons: 331.000000
LCAOMinimize: Iter:  19  F: -1802.3611301231608195  |grad|_K:  1.137e-04  alpha:  1.382e-02  linmin: -1.317e-03  cgtest:  5.768e-02  t[s]:   2386.72
LCAOMinimize: 	Predicted alpha/alphaT>3.000000, increasing alphaT to 4.146838e-02.
	FillingsUpdate:  mu: -0.249085711  nElectrons: 331.000000
LCAOMinimize: Iter:  20  F: -1802.3613525905982442  |grad|_K:  1.523e-04  alpha:  6.102e-02  linmin:  9.355e-05  cgtest: -3.830e-03  t[s]:   2507.77
	FillingsUpdate:  mu: -0.249726960  nElectrons: 331.000000
LCAOMinimize: Iter:  21  F: -1802.3614760576044773  |grad|_K:  1.818e-04  alpha:  1.900e-02  linmin:  2.605e-04  cgtest: -2.808e-04  t[s]:   2602.97
	FillingsUpdate:  mu: -0.243638084  nElectrons: 331.000000
LCAOMinimize: Iter:  22  F: -1802.3619291279642312  |grad|_K:  6.792e-05  alpha:  4.879e-02  linmin: -9.991e-04  cgtest:  2.815e-02  t[s]:   2699.94
	FillingsUpdate:  mu: -0.241762151  nElectrons: 331.000000
LCAOMinimize: Iter:  23  F: -1802.3619769915733286  |grad|_K:  9.756e-05  alpha:  3.677e-02  linmin: -1.606e-05  cgtest: -3.342e-03  t[s]:   2796.10
	FillingsUpdate:  mu: -0.240610806  nElectrons: 331.000000
LCAOMinimize: Iter:  24  F: -1802.3620140189254926  |grad|_K:  5.279e-05  alpha:  1.378e-02  linmin: -4.879e-04  cgtest:  9.774e-03  t[s]:   2891.93
LCAOMinimize: 	Predicted alpha/alphaT>3.000000, increasing alphaT to 4.135009e-02.
	FillingsUpdate:  mu: -0.242828250  nElectrons: 331.000000
LCAOMinimize: Iter:  25  F: -1802.3620506252523228  |grad|_K:  1.843e-05  alpha:  4.660e-02  linmin:  1.911e-04  cgtest: -1.668e-02  t[s]:   3012.35
	FillingsUpdate:  mu: -0.243012358  nElectrons: 331.000000
LCAOMinimize: Iter:  26  F: -1802.3620522834983149  |grad|_K:  2.130e-05  alpha:  1.739e-02  linmin: -3.363e-05  cgtest:  2.291e-04  t[s]:   3109.14
	FillingsUpdate:  mu: -0.243637592  nElectrons: 331.000000
LCAOMinimize: Iter:  27  F: -1802.3620568111382454  |grad|_K:  1.236e-05  alpha:  3.553e-02  linmin:  2.746e-04  cgtest: -2.263e-03  t[s]:   3205.67
	FillingsUpdate:  mu: -0.243135396  nElectrons: 331.000000
LCAOMinimize: Iter:  28  F: -1802.3620587250011340  |grad|_K:  9.611e-06  alpha:  4.456e-02  linmin: -8.958e-05  cgtest:  3.235e-03  t[s]:   3299.97
	FillingsUpdate:  mu: -0.243057990  nElectrons: 331.000000
LCAOMinimize: Iter:  29  F: -1802.3620590795610497  |grad|_K:  9.219e-06  alpha:  1.363e-02  linmin:  4.163e-05  cgtest: -1.067e-03  t[s]:   3396.49
LCAOMinimize: 	Predicted alpha/alphaT>3.000000, increasing alphaT to 4.088365e-02.
	FillingsUpdate:  mu: -0.242689012  nElectrons: 331.000000
LCAOMinimize: Iter:  30  F: -1802.3620614052340443  |grad|_K:  7.429e-06  alpha:  9.734e-02  linmin:  6.615e-05  cgtest:  5.286e-03  t[s]:   3514.51
LCAOMinimize: None of the convergence criteria satisfied after 30 iterations.


---- Citations for features of the code used in this run ----

   Software package:
      R. Sundararaman, K. Letchworth-Weaver, K.A. Schwarz, D. Gunceler, Y. Ozhabes and T.A. Arias, 'JDFTx: software for joint density-functional theory', SoftwareX 6, 278 (2017)

   gga-PBEsol exchange-correlation functional:
      J.P. Perdew et al., Phys. Rev. Lett. 100, 136406 (2008)

   Pseudopotentials:
      KF Garrity, JW Bennett, KM Rabe and D Vanderbilt, Comput. Mater. Sci. 81, 446 (2014)

   Truncated Coulomb potentials:
      R. Sundararaman and T.A. Arias, Phys. Rev. B 87, 165122 (2013)

   Total energy minimization with Auxiliary Hamiltonian:
      C. Freysoldt, S. Boeck, and J. Neugebauer, Phys. Rev. B 79, 241103(R) (2009)

This list may not be complete. Please suggest additional citations or
report any other bugs at https://github.com/shankar1729/jdftx/issues

Initialization completed successfully at t[s]:   3593.17


-------- Electronic minimization -----------
	FillingsUpdate:  mu: -0.242689012  nElectrons: 331.000000
ElecMinimize: Iter:   0  F: -1802.362061405285431  |grad|_K:  1.319e-04  alpha:  1.000e+00
	FillingsUpdate:  mu: -0.198648831  nElectrons: 331.000000
	SubspaceRotationAdjust: set factor to 1
ElecMinimize: Iter:   1  F: -1802.716412433544065  |grad|_K:  6.671e-05  alpha:  4.394e-01  linmin:  6.074e-05  t[s]:   4154.37
	FillingsUpdate:  mu: -0.176883593  nElectrons: 331.000000
	SubspaceRotationAdjust: set factor to 0.532
ElecMinimize: Iter:   2  F: -1802.732990192984062  |grad|_K:  2.026e-04  alpha:  8.147e-02  linmin:  2.591e-05  t[s]:   4544.59
	FillingsUpdate:  mu: -0.252804746  nElectrons: 331.000000
	SubspaceRotationAdjust: set factor to 0.384
ElecMinimize: Iter:   3  F: -1802.788324048563027  |grad|_K:  5.504e-05  alpha:  2.893e-02  linmin: -6.053e-06  t[s]:   4934.36
	FillingsUpdate:  mu: -0.209998857  nElectrons: 331.000000
	SubspaceRotationAdjust: set factor to 0.278
ElecMinimize: Iter:   4  F: -1802.799716087060460  |grad|_K:  3.940e-05  alpha:  8.024e-02  linmin:  2.318e-05  t[s]:   5325.64
	FillingsUpdate:  mu: -0.200455406  nElectrons: 331.000000
	SubspaceRotationAdjust: set factor to 0.208
ElecMinimize: Iter:   5  F: -1802.802725548560147  |grad|_K:  3.995e-05  alpha:  4.153e-02  linmin: -2.334e-06  t[s]:   5715.41
ElecMinimize: 	Predicted alpha/alphaT>3.000000, increasing alphaT to 1.246009e-01.
	FillingsUpdate:  mu: -0.198705092  nElectrons: 331.000000
	SubspaceRotationAdjust: set factor to 0.147
ElecMinimize: Iter:   6  F: -1802.814066043805042  |grad|_K:  2.542e-05  alpha:  1.511e-01  linmin:  5.290e-06  t[s]:   6199.62
	FillingsUpdate:  mu: -0.205010826  nElectrons: 331.000000
	SubspaceRotationAdjust: set factor to 0.107
	SubspaceRotationAdjust: resetting CG because factor has changed by 0.107186
ElecMinimize: 	State modified externally: resetting search direction.
ElecMinimize: Iter:   7  F: -1802.815412446347864  |grad|_K:  1.629e-05  alpha:  4.468e-02
ElecMinimize: 	Predicted alpha/alphaT>3.000000, increasing alphaT to 1.340331e-01.
	FillingsUpdate:  mu: -0.207107949  nElectrons: 331.000000
	SubspaceRotationAdjust: set factor to 0.0709
ElecMinimize: Iter:   8  F: -1802.817425594197175  |grad|_K:  1.656e-05  alpha:  1.613e-01  linmin: -7.840e-05  t[s]:   7221.22
	FillingsUpdate:  mu: -0.215444933  nElectrons: 331.000000
	SubspaceRotationAdjust: set factor to 0.0539
ElecMinimize: Iter:   9  F: -1802.819148862300608  |grad|_K:  7.107e-06  alpha:  1.335e-01  linmin:  2.679e-06  t[s]:   7607.81
ElecMinimize: 	Predicted alpha/alphaT>3.000000, increasing alphaT to 4.004927e-01.
	FillingsUpdate:  mu: -0.211421543  nElectrons: 331.000000
	SubspaceRotationAdjust: set factor to 0.0684
ElecMinimize: Iter:  10  F: -1802.820455502036111  |grad|_K:  5.371e-06  alpha:  5.509e-01  linmin:  2.959e-05  t[s]:   8089.30
	FillingsUpdate:  mu: -0.210172563  nElectrons: 331.000000
	SubspaceRotationAdjust: set factor to 0.0486
ElecMinimize: Iter:  11  F: -1802.820860171751747  |grad|_K:  5.654e-06  alpha:  2.988e-01  linmin: -5.789e-06  t[s]:   8477.24
	FillingsUpdate:  mu: -0.210884139  nElectrons: 331.000000
	SubspaceRotationAdjust: set factor to 0.0429
ElecMinimize: Iter:  12  F: -1802.821176118718768  |grad|_K:  3.362e-06  alpha:  2.099e-01  linmin:  3.020e-06  t[s]:   8868.38
ElecMinimize: 	Predicted alpha/alphaT>3.000000, increasing alphaT to 6.297393e-01.
	FillingsUpdate:  mu: -0.210882593  nElectrons: 331.000000
	SubspaceRotationAdjust: set factor to 0.0525
ElecMinimize: Iter:  13  F: -1802.821598427249000  |grad|_K:  3.689e-06  alpha:  7.967e-01  linmin:  1.853e-05  t[s]:   9349.60
	FillingsUpdate:  mu: -0.209653500  nElectrons: 331.000000
	SubspaceRotationAdjust: set factor to 0.0526
ElecMinimize: Iter:  14  F: -1802.821977737907446  |grad|_K:  4.943e-06  alpha:  5.968e-01  linmin: -6.001e-06  t[s]:   9736.60
	FillingsUpdate:  mu: -0.209190722  nElectrons: 331.000000
	SubspaceRotationAdjust: set factor to 0.042
ElecMinimize: Iter:  15  F: -1802.822424908536505  |grad|_K:  5.756e-06  alpha:  3.925e-01  linmin: -4.574e-06  t[s]:  10123.86
	FillingsUpdate:  mu: -0.209266413  nElectrons: 331.000000
	SubspaceRotationAdjust: set factor to 0.0378
ElecMinimize: Iter:  16  F: -1802.823034116778672  |grad|_K:  4.667e-06  alpha:  3.900e-01  linmin: -2.049e-05  t[s]:  10514.85
	FillingsUpdate:  mu: -0.209753890  nElectrons: 331.000000
	SubspaceRotationAdjust: set factor to 0.0416
ElecMinimize: Iter:  17  F: -1802.823577652319273  |grad|_K:  3.397e-06  alpha:  5.211e-01  linmin: -1.469e-05  t[s]:  10903.58
	FillingsUpdate:  mu: -0.208773816  nElectrons: 331.000000
	SubspaceRotationAdjust: set factor to 0.0358
ElecMinimize: Iter:  18  F: -1802.823815825983502  |grad|_K:  2.929e-06  alpha:  4.358e-01  linmin: -8.564e-06  t[s]:  11293.74
	FillingsUpdate:  mu: -0.207752277  nElectrons: 331.000000
	SubspaceRotationAdjust: set factor to 0.0256
ElecMinimize: Iter:  19  F: -1802.823922505493101  |grad|_K:  1.825e-06  alpha:  2.640e-01  linmin: -1.015e-06  t[s]:  11685.69
	FillingsUpdate:  mu: -0.207306117  nElectrons: 331.000000
	SubspaceRotationAdjust: set factor to 0.0318
ElecMinimize: Iter:  20  F: -1802.823989494948819  |grad|_K:  1.135e-06  alpha:  4.272e-01  linmin: -1.017e-05  t[s]:  12076.48
	FillingsUpdate:  mu: -0.207471770  nElectrons: 331.000000
	SubspaceRotationAdjust: set factor to 0.0347
ElecMinimize: Iter:  21  F: -1802.824015574765099  |grad|_K:  8.158e-07  alpha:  4.290e-01  linmin: -4.028e-06  t[s]:  12468.36
	FillingsUpdate:  mu: -0.207340832  nElectrons: 331.000000
	SubspaceRotationAdjust: set factor to 0.0356
ElecMinimize: Iter:  22  F: -1802.824027421249411  |grad|_K:  6.978e-07  alpha:  3.782e-01  linmin: -2.768e-07  t[s]:  12856.82
	FillingsUpdate:  mu: -0.207068503  nElectrons: 331.000000
	SubspaceRotationAdjust: set factor to 0.0424
ElecMinimize: Iter:  23  F: -1802.824039367450723  |grad|_K:  6.651e-07  alpha:  5.219e-01  linmin:  3.549e-07  t[s]:  13243.68
	FillingsUpdate:  mu: -0.206847178  nElectrons: 331.000000
	SubspaceRotationAdjust: set factor to 0.0503
ElecMinimize: Iter:  24  F: -1802.824054571992974  |grad|_K:  7.638e-07  alpha:  7.314e-01  linmin: -1.418e-07  t[s]:  13636.05
	FillingsUpdate:  mu: -0.206669444  nElectrons: 331.000000
	SubspaceRotationAdjust: set factor to 0.0498
ElecMinimize: Iter:  25  F: -1802.824070106398494  |grad|_K:  9.521e-07  alpha:  5.673e-01  linmin: -5.918e-07  t[s]:  14023.90
	FillingsUpdate:  mu: -0.206598390  nElectrons: 331.000000
	SubspaceRotationAdjust: set factor to 0.0408
ElecMinimize: Iter:  26  F: -1802.824083694120645  |grad|_K:  9.032e-07  alpha:  3.204e-01  linmin:  8.615e-07  t[s]:  14418.58
	FillingsUpdate:  mu: -0.206428380  nElectrons: 331.000000
	SubspaceRotationAdjust: set factor to 0.0436
ElecMinimize: Iter:  27  F: -1802.824100296538973  |grad|_K:  7.528e-07  alpha:  4.328e-01  linmin: -3.504e-06  t[s]:  14807.15
	FillingsUpdate:  mu: -0.206527208  nElectrons: 331.000000
	SubspaceRotationAdjust: set factor to 0.0529
ElecMinimize: Iter:  28  F: -1802.824114128410883  |grad|_K:  6.460e-07  alpha:  5.147e-01  linmin: -2.127e-06  t[s]:  15200.31
	FillingsUpdate:  mu: -0.206757821  nElectrons: 331.000000
	SubspaceRotationAdjust: set factor to 0.0495
ElecMinimize: Iter:  29  F: -1802.824122925475194  |grad|_K:  6.885e-07  alpha:  4.468e-01  linmin: -4.924e-07  t[s]:  15591.24
	FillingsUpdate:  mu: -0.206906465  nElectrons: 331.000000
	SubspaceRotationAdjust: set factor to 0.0468
ElecMinimize: Iter:  30  F: -1802.824128914547828  |grad|_K:  5.760e-07  alpha:  2.687e-01  linmin:  2.009e-07  t[s]:  15980.08
	FillingsUpdate:  mu: -0.207212375  nElectrons: 331.000000
	SubspaceRotationAdjust: set factor to 0.0579
ElecMinimize: Iter:  31  F: -1802.824136573573242  |grad|_K:  5.159e-07  alpha:  4.904e-01  linmin: -1.162e-06  t[s]:  16372.14
	FillingsUpdate:  mu: -0.207545294  nElectrons: 331.000000
	SubspaceRotationAdjust: set factor to 0.066
ElecMinimize: Iter:  32  F: -1802.824143370701677  |grad|_K:  5.174e-07  alpha:  5.414e-01  linmin: -1.175e-06  t[s]:  16767.36
	FillingsUpdate:  mu: -0.207720328  nElectrons: 331.000000
	SubspaceRotationAdjust: set factor to 0.0581
ElecMinimize: Iter:  33  F: -1802.824147563431097  |grad|_K:  5.743e-07  alpha:  3.325e-01  linmin:  6.114e-08  t[s]:  17157.84
	FillingsUpdate:  mu: -0.207926421  nElectrons: 331.000000
	SubspaceRotationAdjust: set factor to 0.0478
ElecMinimize: Iter:  34  F: -1802.824151024241246  |grad|_K:  3.906e-07  alpha:  2.234e-01  linmin: -8.057e-08  t[s]:  17543.23
	FillingsUpdate:  mu: -0.208076256  nElectrons: 331.000000
	SubspaceRotationAdjust: set factor to 0.0575
ElecMinimize: Iter:  35  F: -1802.824154121007496  |grad|_K:  2.849e-07  alpha:  4.318e-01  linmin: -9.540e-08  t[s]:  17934.05
	FillingsUpdate:  mu: -0.208117353  nElectrons: 331.000000
	SubspaceRotationAdjust: set factor to 0.0685
ElecMinimize: Iter:  36  F: -1802.824155812744493  |grad|_K:  2.430e-07  alpha:  4.436e-01  linmin: -1.312e-07  t[s]:  18321.28
	FillingsUpdate:  mu: -0.208100327  nElectrons: 331.000000
	SubspaceRotationAdjust: set factor to 0.0536
ElecMinimize: Iter:  37  F: -1802.824156742741707  |grad|_K:  2.676e-07  alpha:  3.348e-01  linmin: -3.187e-08  t[s]:  18713.13
	FillingsUpdate:  mu: -0.208036675  nElectrons: 331.000000
	SubspaceRotationAdjust: set factor to 0.0542
ElecMinimize: Iter:  38  F: -1802.824157491981850  |grad|_K:  1.991e-07  alpha:  2.230e-01  linmin: -8.245e-08  t[s]:  19103.52
	FillingsUpdate:  mu: -0.207971747  nElectrons: 331.000000
	SubspaceRotationAdjust: set factor to 0.0706
ElecMinimize: Iter:  39  F: -1802.824158459165574  |grad|_K:  1.878e-07  alpha:  5.227e-01  linmin:  2.253e-06  t[s]:  19492.09
	FillingsUpdate:  mu: -0.207875173  nElectrons: 331.000000
	SubspaceRotationAdjust: set factor to 0.0784
ElecMinimize: Iter:  40  F: -1802.824159354659287  |grad|_K:  2.236e-07  alpha:  5.437e-01  linmin:  3.950e-07  t[s]:  19877.40
	FillingsUpdate:  mu: -0.207751728  nElectrons: 331.000000
	SubspaceRotationAdjust: set factor to 0.0665
ElecMinimize: Iter:  41  F: -1802.824159967792866  |grad|_K:  2.567e-07  alpha:  2.620e-01  linmin: -5.421e-08  t[s]:  20268.28
	FillingsUpdate:  mu: -0.207611117  nElectrons: 331.000000
	SubspaceRotationAdjust: set factor to 0.0595
ElecMinimize: Iter:  42  F: -1802.824160731139727  |grad|_K:  1.826e-07  alpha:  2.466e-01  linmin:  2.847e-07  t[s]:  20664.45
	FillingsUpdate:  mu: -0.207495978  nElectrons: 331.000000
	SubspaceRotationAdjust: set factor to 0.0664
ElecMinimize: Iter:  43  F: -1802.824161475337860  |grad|_K:  1.501e-07  alpha:  4.770e-01  linmin:  7.217e-07  t[s]:  21057.48
	FillingsUpdate:  mu: -0.207448839  nElectrons: 331.000000
	SubspaceRotationAdjust: set factor to 0.0801
ElecMinimize: Iter:  44  F: -1802.824161932054494  |grad|_K:  1.218e-07  alpha:  4.335e-01  linmin:  8.933e-08  t[s]:  21444.86
	FillingsUpdate:  mu: -0.207407664  nElectrons: 331.000000
	SubspaceRotationAdjust: set factor to 0.106
ElecMinimize: Iter:  45  F: -1802.824162252374435  |grad|_K:  1.056e-07  alpha:  4.592e-01  linmin:  2.284e-07  t[s]:  21837.09
	FillingsUpdate:  mu: -0.207408546  nElectrons: 331.000000
	SubspaceRotationAdjust: set factor to 0.106
ElecMinimize: Iter:  46  F: -1802.824162508640029  |grad|_K:  1.169e-07  alpha:  4.904e-01  linmin:  6.021e-08  t[s]:  22222.40
	FillingsUpdate:  mu: -0.207428135  nElectrons: 331.000000
	SubspaceRotationAdjust: set factor to 0.0785
ElecMinimize: Iter:  47  F: -1802.824162646346394  |grad|_K:  1.517e-07  alpha:  2.151e-01  linmin:  8.481e-08  t[s]:  22606.18
	FillingsUpdate:  mu: -0.207486019  nElectrons: 331.000000
	SubspaceRotationAdjust: set factor to 0.0785
ElecMinimize: Iter:  48  F: -1802.824162848247170  |grad|_K:  1.074e-07  alpha:  1.861e-01  linmin: -1.598e-07  t[s]:  22997.05
	FillingsUpdate:  mu: -0.207531964  nElectrons: 331.000000
	SubspaceRotationAdjust: set factor to 0.0942
ElecMinimize: Iter:  49  F: -1802.824163107031382  |grad|_K:  1.068e-07  alpha:  4.771e-01  linmin: -3.539e-07  t[s]:  23385.61
	FillingsUpdate:  mu: -0.207547914  nElectrons: 331.000000
	SubspaceRotationAdjust: set factor to 0.0796
ElecMinimize: Iter:  50  F: -1802.824163279594586  |grad|_K:  1.414e-07  alpha:  3.191e-01  linmin:  3.777e-08  t[s]:  23776.48
	FillingsUpdate:  mu: -0.207577020  nElectrons: 331.000000
	SubspaceRotationAdjust: set factor to 0.0628
ElecMinimize: Iter:  51  F: -1802.824163416268220  |grad|_K:  9.130e-08  alpha:  1.456e-01  linmin: -2.614e-07  t[s]:  24166.50
	FillingsUpdate:  mu: -0.207619637  nElectrons: 331.000000
	SubspaceRotationAdjust: set factor to 0.0804
ElecMinimize: Iter:  52  F: -1802.824163566468997  |grad|_K:  7.120e-08  alpha:  3.777e-01  linmin: -1.850e-06  t[s]:  24556.39
	FillingsUpdate:  mu: -0.207631287  nElectrons: 331.000000
	SubspaceRotationAdjust: set factor to 0.07
ElecMinimize: Iter:  53  F: -1802.824163645446106  |grad|_K:  7.490e-08  alpha:  3.242e-01  linmin:  8.616e-07  t[s]:  24947.75
	FillingsUpdate:  mu: -0.207635717  nElectrons: 331.000000
	SubspaceRotationAdjust: set factor to 0.0619
ElecMinimize: Iter:  54  F: -1802.824163686439988  |grad|_K:  5.382e-08  alpha:  1.548e-01  linmin: -1.455e-06  t[s]:  25341.10
	FillingsUpdate:  mu: -0.207626881  nElectrons: 331.000000
	SubspaceRotationAdjust: set factor to 0.0941
ElecMinimize: Iter:  55  F: -1802.824163736120681  |grad|_K:  4.035e-08  alpha:  3.435e-01  linmin: -8.862e-06  t[s]:  25731.86
	FillingsUpdate:  mu: -0.207624551  nElectrons: 331.000000
	SubspaceRotationAdjust: set factor to 0.0684
ElecMinimize: Iter:  56  F: -1802.824163764100604  |grad|_K:  5.395e-08  alpha:  3.424e-01  linmin: -2.950e-06  t[s]:  26122.76
	FillingsUpdate:  mu: -0.207626392  nElectrons: 331.000000
	SubspaceRotationAdjust: set factor to 0.0642
ElecMinimize: Iter:  57  F: -1802.824163783875065  |grad|_K:  3.754e-08  alpha:  1.468e-01  linmin:  1.828e-07  t[s]:  26517.15
ElecMinimize: 	Predicted alpha/alphaT>3.000000, increasing alphaT to 4.405283e-01.
	FillingsUpdate:  mu: -0.207619002  nElectrons: 331.000000
	SubspaceRotationAdjust: set factor to 0.0879
ElecMinimize: Iter:  58  F: -1802.824163810980735  |grad|_K:  3.541e-08  alpha:  4.116e-01  linmin:  3.933e-06  t[s]:  26998.87
	FillingsUpdate:  mu: -0.207608740  nElectrons: 331.000000
	SubspaceRotationAdjust: set factor to 0.0758
ElecMinimize: Iter:  59  F: -1802.824163826625409  |grad|_K:  4.324e-08  alpha:  2.636e-01  linmin: -5.136e-07  t[s]:  27385.13
	FillingsUpdate:  mu: -0.207601718  nElectrons: 331.000000
	SubspaceRotationAdjust: set factor to 0.0763
ElecMinimize: Iter:  60  F: -1802.824163845418070  |grad|_K:  3.154e-08  alpha:  1.991e-01  linmin: -1.102e-06  t[s]:  27776.09
	FillingsUpdate:  mu: -0.207599964  nElectrons: 331.000000
	SubspaceRotationAdjust: set factor to 0.101
ElecMinimize: Iter:  61  F: -1802.824163866219124  |grad|_K:  2.878e-08  alpha:  3.950e-01  linmin: -1.382e-05  t[s]:  28165.09
	FillingsUpdate:  mu: -0.207599572  nElectrons: 331.000000
	SubspaceRotationAdjust: set factor to 0.0906
ElecMinimize: Iter:  62  F: -1802.824163887578152  |grad|_K:  3.775e-08  alpha:  4.942e-01  linmin:  2.390e-06  t[s]:  28555.67
	FillingsUpdate:  mu: -0.207599420  nElectrons: 331.000000
	SubspaceRotationAdjust: set factor to 0.0799
ElecMinimize: Iter:  63  F: -1802.824163897176959  |grad|_K:  3.533e-08  alpha:  1.385e-01  linmin:  1.732e-07  t[s]:  28949.86
	FillingsUpdate:  mu: -0.207593772  nElectrons: 331.000000
	SubspaceRotationAdjust: set factor to 0.119
ElecMinimize: Iter:  64  F: -1802.824163912403037  |grad|_K:  2.813e-08  alpha:  2.194e-01  linmin: -1.623e-05  t[s]:  29342.96
	FillingsUpdate:  mu: -0.207591042  nElectrons: 331.000000
	SubspaceRotationAdjust: set factor to 0.0816
ElecMinimize: Iter:  65  F: -1802.824163924934737  |grad|_K:  4.499e-08  alpha:  2.440e-01  linmin:  2.587e-06  t[s]:  29735.31
	FillingsUpdate:  mu: -0.207594613  nElectrons: 331.000000
	SubspaceRotationAdjust: set factor to 0.136
ElecMinimize: Iter:  66  F: -1802.824163934802755  |grad|_K:  2.984e-08  alpha:  1.205e-01  linmin: -3.999e-07  t[s]:  30126.47
	FillingsUpdate:  mu: -0.207600254  nElectrons: 331.000000
	SubspaceRotationAdjust: set factor to 0.106
ElecMinimize: Iter:  67  F: -1802.824163941341340  |grad|_K:  3.964e-08  alpha:  1.572e-01  linmin:  1.901e-06  t[s]:  30515.99
ElecMinimize: Converged (|Delta F|<1.000000e-08 for 2 iters).
Setting wave functions to eigenvectors of Hamiltonian

# Ionic positions in lattice coordinates:
ion O   0.500000000000000   0.314000000000000   0.273000000000000 1
ion C   0.500000000000000   0.500000000000000   0.246000000000000 1
ion H   0.500000000000000   0.679000000000000   0.266000000000000 1
ion Pt   0.000000000000000   0.000000000000000  -0.166700000000000 0
ion Pt   0.500000000000000   0.500000000000000  -0.166700000000000 0
ion Pt   0.000000000000000   0.500000000000000  -0.166700000000000 0
ion Pt   0.500000000000000   0.000000000000000  -0.166700000000000 0
ion Pt   0.750000000000000   0.250000000000000  -0.083300000000000 0
ion Pt   0.250000000000000   0.750000000000000  -0.083300000000000 0
ion Pt   0.250000000000000   0.250000000000000  -0.083300000000000 0
ion Pt   0.750000000000000   0.750000000000000  -0.083300000000000 0
ion Pt   0.500000000000000   0.000000000000000   0.000000000000000 1
ion Pt   0.000000000000000   0.000000000000000   0.000000000000000 1
ion Pt   0.000000000000000   0.500000000000000   0.000000000000000 1
ion Pt   0.500000000000000   0.500000000000000   0.000000000000000 1
ion Pt   0.750000000000000   0.250000000000000   0.083300000000000 1
ion Pt   0.250000000000000   0.750000000000000   0.083300000000000 1
ion Pt   0.250000000000000   0.250000000000000   0.083300000000000 1
ion Pt   0.750000000000000   0.750000000000000   0.083300000000000 1
ion Pt   0.000000000000000   0.000000000000000   0.166700000000000 1
ion Pt   0.000000000000000   0.500000000000000   0.166700000000000 1
ion Pt   0.500000000000000   0.000000000000000   0.166700000000000 1
ion Pt   0.500000000000000   0.500000000000000   0.166700000000000 1


# Forces in Lattice coordinates:
force O   0.000000000000000   0.001625818756267   0.296017863035548 1
force C   0.000000000000000  -0.205640472076195   1.233818701058479 1
force H   0.000000000000000   0.126373565472747   0.333173104347241 1
force Pt   0.000000000000000   0.000115711751019   0.336925242504434 0
force Pt   0.000000000000000  -0.000354519717060   0.351633011679858 0
force Pt   0.000000000000000  -0.000149224198629   0.335232910426958 0
force Pt   0.000000000000000  -0.000084956846041   0.327157498258441 0
force Pt  -0.000777501975600  -0.000510840729124  -0.282394349209011 0
force Pt   0.001054370408875   0.000192321757308  -0.286937272317791 0
force Pt   0.000777501975600  -0.000510840729124  -0.282394349209011 0
force Pt  -0.001054370408875   0.000192321757308  -0.286937272317791 0
force Pt   0.000000000000000   0.000749753998461   0.026921355118020 1
force Pt   0.000000000000000  -0.001627014997163  -0.184522706173855 1
force Pt   0.000000000000000   0.002875098162016   0.068784661585327 1
force Pt   0.000000000000000  -0.000628789085070   0.015584340681710 1
force Pt   0.017906348733178  -0.014469063811171   0.144054559818378 1
force Pt  -0.015223074587268   0.022066957937417   0.126819353129714 1
force Pt  -0.017906348733178  -0.014469063811171   0.144054559818378 1
force Pt   0.015223074587268   0.022066957937417   0.126819353129714 1
force Pt   0.000000000000000  -0.002637530699587  -0.342524642568713 1
force Pt   0.000000000000000   0.004383619815069  -0.499414919492486 1
force Pt   0.000000000000000   0.005238651333536  -0.453666188608725 1
force Pt   0.000000000000000   0.054657701362854  -1.178318384683288 1

# Energy components:
   Eewald =   -21657.1149368882615818
       EH =   -20138.4129894692559901
     Eloc =    39677.0048744328887551
      Enl =      -18.0273981678132920
      Exc =     -571.8515457315263575
 Exc_core =      324.9288053046522577
       KE =      580.8849663491006368
-------------------------------------
     Etot =    -1802.5882241702197462
       TS =        0.2359397711215875
-------------------------------------
        F =    -1802.8241639413413395

IonicMinimize: Iter:   0  F: -1802.824163941341340  |grad|_K:  7.457e-03  t[s]:  30580.48

#--- Lowdin population analysis ---
# oxidation-state O -0.179
# oxidation-state C +0.258
# oxidation-state H +0.242
# oxidation-state Pt +0.026 +0.026 +0.026 +0.026 -0.008 -0.008 -0.008 -0.008 +0.012 +0.009 +0.012 +0.013 -0.023 -0.020 -0.023 -0.020 +0.022 +0.008 +0.000 -0.062


-------- Electronic minimization -----------
	FillingsUpdate:  mu: -0.231130370  nElectrons: 331.000000
ElecMinimize: Iter:   0  F: -1802.775336586256117  |grad|_K:  5.512e-05  alpha:  1.000e+00
	FillingsUpdate:  mu: -0.186324279  nElectrons: 331.000000
	SubspaceRotationAdjust: set factor to 0.0725
ElecMinimize: Iter:   1  F: -1802.817242218670799  |grad|_K:  2.700e-05  alpha:  2.939e-01  linmin:  4.503e-04  t[s]:  31269.91
	FillingsUpdate:  mu: -0.194249579  nElectrons: 331.000000
	SubspaceRotationAdjust: set factor to 0.0416
ElecMinimize: Iter:   2  F: -1802.819926080199593  |grad|_K:  1.332e-05  alpha:  7.892e-02  linmin:  4.144e-04  t[s]:  31661.68
ElecMinimize: 	Predicted alpha/alphaT>3.000000, increasing alphaT to 2.367539e-01.
	FillingsUpdate:  mu: -0.205593699  nElectrons: 331.000000
	SubspaceRotationAdjust: set factor to 0.0474
ElecMinimize: Iter:   3  F: -1802.822322268356402  |grad|_K:  6.179e-06  alpha:  2.885e-01  linmin: -7.852e-06  t[s]:  32141.77
	FillingsUpdate:  mu: -0.205439062  nElectrons: 331.000000
	SubspaceRotationAdjust: set factor to 0.0375
ElecMinimize: Iter:   4  F: -1802.822706222052375  |grad|_K:  4.534e-06  alpha:  2.139e-01  linmin:  9.389e-07  t[s]:  32529.77
	FillingsUpdate:  mu: -0.203837055  nElectrons: 331.000000
	SubspaceRotationAdjust: set factor to 0.054
ElecMinimize: Iter:   5  F: -1802.823017710219347  |grad|_K:  3.001e-06  alpha:  3.223e-01  linmin: -7.026e-06  t[s]:  32918.66
	FillingsUpdate:  mu: -0.204241969  nElectrons: 331.000000
	SubspaceRotationAdjust: set factor to 0.0426
ElecMinimize: Iter:   6  F: -1802.823313448650879  |grad|_K:  4.518e-06  alpha:  6.976e-01  linmin: -3.167e-05  t[s]:  33311.04
	FillingsUpdate:  mu: -0.205209525  nElectrons: 331.000000
	SubspaceRotationAdjust: set factor to 0.0352
ElecMinimize: Iter:   7  F: -1802.823556499060260  |grad|_K:  4.071e-06  alpha:  2.516e-01  linmin: -4.390e-05  t[s]:  33705.20
	FillingsUpdate:  mu: -0.207127926  nElectrons: 331.000000
	SubspaceRotationAdjust: set factor to 0.0442
ElecMinimize: Iter:   8  F: -1802.824044867700650  |grad|_K:  4.973e-06  alpha:  6.245e-01  linmin: -5.561e-07  t[s]:  34095.53
	FillingsUpdate:  mu: -0.208077076  nElectrons: 331.000000
	SubspaceRotationAdjust: set factor to 0.0378
ElecMinimize: Iter:   9  F: -1802.824564121906633  |grad|_K:  6.001e-06  alpha:  4.494e-01  linmin: -1.171e-05  t[s]:  34489.90
	FillingsUpdate:  mu: -0.208172844  nElectrons: 331.000000
	SubspaceRotationAdjust: set factor to 0.0339
ElecMinimize: Iter:  10  F: -1802.825145292597881  |grad|_K:  4.349e-06  alpha:  3.414e-01  linmin:  1.490e-05  t[s]:  34882.14
	FillingsUpdate:  mu: -0.207525193  nElectrons: 331.000000
	SubspaceRotationAdjust: set factor to 0.0398
ElecMinimize: Iter:  11  F: -1802.825530720512234  |grad|_K:  3.322e-06  alpha:  4.346e-01  linmin:  1.134e-05  t[s]:  35270.33
	FillingsUpdate:  mu: -0.207679978  nElectrons: 331.000000
	SubspaceRotationAdjust: set factor to 0.0323
ElecMinimize: Iter:  12  F: -1802.825696125353716  |grad|_K:  2.490e-06  alpha:  3.196e-01  linmin: -5.072e-06  t[s]:  35658.03
	FillingsUpdate:  mu: -0.207611152  nElectrons: 331.000000
	SubspaceRotationAdjust: set factor to 0.0298
ElecMinimize: Iter:  13  F: -1802.825790966094473  |grad|_K:  1.665e-06  alpha:  3.253e-01  linmin:  9.466e-06  t[s]:  36051.31
	FillingsUpdate:  mu: -0.207468213  nElectrons: 331.000000
	SubspaceRotationAdjust: set factor to 0.0399
ElecMinimize: Iter:  14  F: -1802.825841644782713  |grad|_K:  1.186e-06  alpha:  3.889e-01  linmin: -1.757e-06  t[s]:  36436.80
	FillingsUpdate:  mu: -0.207162400  nElectrons: 331.000000
	SubspaceRotationAdjust: set factor to 0.0396
ElecMinimize: Iter:  15  F: -1802.825871264761872  |grad|_K:  1.116e-06  alpha:  4.477e-01  linmin: -5.648e-06  t[s]:  36823.86
	FillingsUpdate:  mu: -0.206742175  nElectrons: 331.000000
	SubspaceRotationAdjust: set factor to 0.0362
ElecMinimize: Iter:  16  F: -1802.825892466392588  |grad|_K:  1.036e-06  alpha:  3.620e-01  linmin:  3.224e-06  t[s]:  37215.44
	FillingsUpdate:  mu: -0.206369537  nElectrons: 331.000000
	SubspaceRotationAdjust: set factor to 0.0419
ElecMinimize: Iter:  17  F: -1802.825917600241382  |grad|_K:  8.304e-07  alpha:  4.982e-01  linmin: -3.157e-06  t[s]:  37606.89
	FillingsUpdate:  mu: -0.206018077  nElectrons: 331.000000
	SubspaceRotationAdjust: set factor to 0.0471
ElecMinimize: Iter:  18  F: -1802.825935951385190  |grad|_K:  7.731e-07  alpha:  5.660e-01  linmin: -1.633e-06  t[s]:  37995.99
	FillingsUpdate:  mu: -0.205809329  nElectrons: 331.000000
	SubspaceRotationAdjust: set factor to 0.0389
ElecMinimize: Iter:  19  F: -1802.825945180087047  |grad|_K:  7.444e-07  alpha:  3.283e-01  linmin: -1.674e-06  t[s]:  38382.50
	FillingsUpdate:  mu: -0.205787869  nElectrons: 331.000000
	SubspaceRotationAdjust: set factor to 0.0387
ElecMinimize: Iter:  20  F: -1802.825954981976793  |grad|_K:  5.458e-07  alpha:  3.762e-01  linmin: -2.510e-06  t[s]:  38775.88
	FillingsUpdate:  mu: -0.205799470  nElectrons: 331.000000
	SubspaceRotationAdjust: set factor to 0.0479
ElecMinimize: Iter:  21  F: -1802.825962677614598  |grad|_K:  4.785e-07  alpha:  5.494e-01  linmin:  8.156e-07  t[s]:  39163.63
	FillingsUpdate:  mu: -0.205797135  nElectrons: 331.000000
	SubspaceRotationAdjust: set factor to 0.053
ElecMinimize: Iter:  22  F: -1802.825968299640181  |grad|_K:  4.832e-07  alpha:  5.226e-01  linmin:  2.893e-06  t[s]:  39557.06
	FillingsUpdate:  mu: -0.205905500  nElectrons: 331.000000
	SubspaceRotationAdjust: set factor to 0.0454
ElecMinimize: Iter:  23  F: -1802.825972373305831  |grad|_K:  5.170e-07  alpha:  3.713e-01  linmin:  6.788e-07  t[s]:  39948.36
	FillingsUpdate:  mu: -0.206014018  nElectrons: 331.000000
	SubspaceRotationAdjust: set factor to 0.0384
ElecMinimize: Iter:  24  F: -1802.825976307657129  |grad|_K:  3.825e-07  alpha:  3.131e-01  linmin: -1.200e-06  t[s]:  40332.61
	FillingsUpdate:  mu: -0.206168764  nElectrons: 331.000000
	SubspaceRotationAdjust: set factor to 0.0428
ElecMinimize: Iter:  25  F: -1802.825979799732067  |grad|_K:  2.929e-07  alpha:  5.076e-01  linmin: -9.975e-09  t[s]:  40718.96
	FillingsUpdate:  mu: -0.206206360  nElectrons: 331.000000
	SubspaceRotationAdjust: set factor to 0.0476
ElecMinimize: Iter:  26  F: -1802.825981751944255  |grad|_K:  2.170e-07  alpha:  4.840e-01  linmin: -1.198e-06  t[s]:  41106.14
	FillingsUpdate:  mu: -0.206179968  nElectrons: 331.000000
	SubspaceRotationAdjust: set factor to 0.0479
ElecMinimize: Iter:  27  F: -1802.825982678881928  |grad|_K:  1.720e-07  alpha:  4.191e-01  linmin: -6.806e-06  t[s]:  41495.35
	FillingsUpdate:  mu: -0.206180562  nElectrons: 331.000000
	SubspaceRotationAdjust: set factor to 0.0377
ElecMinimize: Iter:  28  F: -1802.825983076134662  |grad|_K:  1.451e-07  alpha:  2.851e-01  linmin:  8.022e-06  t[s]:  41890.36
	FillingsUpdate:  mu: -0.206172166  nElectrons: 331.000000
	SubspaceRotationAdjust: set factor to 0.0384
ElecMinimize: Iter:  29  F: -1802.825983427014535  |grad|_K:  1.001e-07  alpha:  3.562e-01  linmin:  3.275e-05  t[s]:  42278.52
	FillingsUpdate:  mu: -0.206182226  nElectrons: 331.000000
	SubspaceRotationAdjust: set factor to 0.0481
ElecMinimize: Iter:  30  F: -1802.825983656185599  |grad|_K:  7.911e-08  alpha:  4.890e-01  linmin: -2.662e-05  t[s]:  42667.58
	FillingsUpdate:  mu: -0.206179582  nElectrons: 331.000000
	SubspaceRotationAdjust: set factor to 0.055
ElecMinimize: Iter:  31  F: -1802.825983824510558  |grad|_K:  8.546e-08  alpha:  5.694e-01  linmin:  1.373e-05  t[s]:  43056.94
	FillingsUpdate:  mu: -0.206167176  nElectrons: 331.000000
	SubspaceRotationAdjust: set factor to 0.0502
ElecMinimize: Iter:  32  F: -1802.825983967563388  |grad|_K:  9.869e-08  alpha:  4.212e-01  linmin: -9.150e-07  t[s]:  43450.34
	FillingsUpdate:  mu: -0.206176772  nElectrons: 331.000000
	SubspaceRotationAdjust: set factor to 0.0434
ElecMinimize: Iter:  33  F: -1802.825984107701743  |grad|_K:  8.565e-08  alpha:  3.067e-01  linmin:  7.013e-07  t[s]:  43843.76
	FillingsUpdate:  mu: -0.206196905  nElectrons: 331.000000
	SubspaceRotationAdjust: set factor to 0.0466
ElecMinimize: Iter:  34  F: -1802.825984295496255  |grad|_K:  7.603e-08  alpha:  5.520e-01  linmin:  2.176e-05  t[s]:  44232.97
	FillingsUpdate:  mu: -0.206204876  nElectrons: 331.000000
	SubspaceRotationAdjust: set factor to 0.0524
ElecMinimize: Iter:  35  F: -1802.825984447917790  |grad|_K:  6.378e-08  alpha:  5.716e-01  linmin:  3.312e-06  t[s]:  44623.56
	FillingsUpdate:  mu: -0.206208838  nElectrons: 331.000000
	SubspaceRotationAdjust: set factor to 0.0605
ElecMinimize: Iter:  36  F: -1802.825984545284655  |grad|_K:  5.399e-08  alpha:  5.092e-01  linmin:  1.553e-06  t[s]:  45019.16
	FillingsUpdate:  mu: -0.206213238  nElectrons: 331.000000
	SubspaceRotationAdjust: set factor to 0.0629
ElecMinimize: Iter:  37  F: -1802.825984605417489  |grad|_K:  5.265e-08  alpha:  4.405e-01  linmin:  2.308e-07  t[s]:  45408.84
	FillingsUpdate:  mu: -0.206214611  nElectrons: 331.000000
	SubspaceRotationAdjust: set factor to 0.0511
ElecMinimize: Iter:  38  F: -1802.825984640046045  |grad|_K:  5.122e-08  alpha:  2.627e-01  linmin:  2.253e-06  t[s]:  45801.34
	FillingsUpdate:  mu: -0.206199408  nElectrons: 331.000000
	SubspaceRotationAdjust: set factor to 0.0491
ElecMinimize: Iter:  39  F: -1802.825984676730513  |grad|_K:  3.545e-08  alpha:  3.094e-01  linmin:  2.652e-05  t[s]:  46193.04
	FillingsUpdate:  mu: -0.206181568  nElectrons: 331.000000
	SubspaceRotationAdjust: set factor to 0.0518
ElecMinimize: Iter:  40  F: -1802.825984707654698  |grad|_K:  3.135e-08  alpha:  5.760e-01  linmin:  8.231e-05  t[s]:  46583.08
	FillingsUpdate:  mu: -0.206176463  nElectrons: 331.000000
	SubspaceRotationAdjust: set factor to 0.0514
ElecMinimize: Iter:  41  F: -1802.825984727626292  |grad|_K:  2.441e-08  alpha:  4.548e-01  linmin:  1.908e-05  t[s]:  46975.70
	FillingsUpdate:  mu: -0.206174257  nElectrons: 331.000000
	SubspaceRotationAdjust: set factor to 0.0428
ElecMinimize: Iter:  42  F: -1802.825984736655982  |grad|_K:  1.997e-08  alpha:  3.184e-01  linmin: -1.310e-05  t[s]:  47366.19
	FillingsUpdate:  mu: -0.206167371  nElectrons: 331.000000
	SubspaceRotationAdjust: set factor to 0.0322
ElecMinimize: Iter:  43  F: -1802.825984740609783  |grad|_K:  1.525e-08  alpha:  2.866e-01  linmin:  5.995e-05  t[s]:  47753.46
ElecMinimize: Converged (|Delta F|<1.000000e-08 for 2 iters).
Setting wave functions to eigenvectors of Hamiltonian

# Ionic positions in lattice coordinates:
ion O   0.500000000000000   0.314014804971734   0.273149848553579 1
ion C   0.500000000000000   0.498127404198799   0.246624576996256 1
ion H   0.500000000000000   0.680150778374013   0.266168657077874 1
ion Pt   0.000000000000000   0.000000000000000  -0.166700000000000 0
ion Pt   0.500000000000000   0.500000000000000  -0.166700000000000 0
ion Pt   0.000000000000000   0.500000000000000  -0.166700000000000 0
ion Pt   0.500000000000000   0.000000000000000  -0.166700000000000 0
ion Pt   0.750000000000000   0.250000000000000  -0.083300000000000 0
ion Pt   0.250000000000000   0.750000000000000  -0.083300000000000 0
ion Pt   0.250000000000000   0.250000000000000  -0.083300000000000 0
ion Pt   0.750000000000000   0.750000000000000  -0.083300000000000 0
ion Pt   0.500000000000000   0.000006827382642   0.000013627982053 1
ion Pt   0.000000000000000  -0.000014815864900  -0.000093408081320 1
ion Pt   0.000000000000000   0.500026181114505   0.000034819797499 1
ion Pt   0.500000000000000   0.499994274143661   0.000007889020229 1
ion Pt   0.750163058142758   0.249868242336411   0.083372922516243 1
ion Pt   0.249861376190855   0.750200945331246   0.083364197803597 1
ion Pt   0.249836941857242   0.249868242336411   0.083372922516243 1
ion Pt   0.750138623809145   0.750200945331246   0.083364197803597 1
ion Pt   0.000000000000000  -0.000024017786303   0.166526609037279 1
ion Pt   0.000000000000000   0.500039917959616   0.166447188894094 1
ion Pt   0.500000000000000   0.000047704016588   0.166470347567968 1
ion Pt   0.500000000000000   0.500497721975845   0.166103518072220 1


# Forces in Lattice coordinates:
force O   0.000000000000000  -0.157069504418400   0.750477801626889 1
force C   0.000000000000000   0.018699854230199   0.383422852836371 1
force H   0.000000000000000   0.066633721010744   0.220304125688981 1
force Pt   0.000000000000000   0.000142490561235   0.333128691994331 0
force Pt   0.000000000000000  -0.000355079064683   0.347500381420796 0
force Pt   0.000000000000000  -0.000150887494066   0.331499286403584 0
force Pt   0.000000000000000  -0.000097439575047   0.323329860271647 0
force Pt  -0.001265856812580   0.000392479666567  -0.290065719745666 0
force Pt   0.001598000214504  -0.000611501037683  -0.294359504723195 0
force Pt   0.001265856812580   0.000392479666567  -0.290065719745666 0
force Pt  -0.001598000214504  -0.000611501037683  -0.294359504723195 0
force Pt   0.000000000000000   0.000775103646971   0.023002902383867 1
force Pt   0.000000000000000  -0.000444924989956  -0.162724805282124 1
force Pt   0.000000000000000   0.002324340228899   0.060030211124223 1
force Pt   0.000000000000000  -0.000609003445595   0.017136920779539 1
force Pt   0.016668349094135  -0.013487490181969   0.087553034031485 1
force Pt  -0.015094829238357   0.021247316128186   0.065604007186230 1
force Pt  -0.016668349094135  -0.013487490181969   0.087553034031485 1
force Pt   0.015094829238357   0.021247316128186   0.065604007186230 1
force Pt   0.000000000000000  -0.001655061939480  -0.307762333462732 1
force Pt   0.000000000000000   0.004019124337680  -0.451965023636790 1
force Pt   0.000000000000000   0.004703918488078  -0.427210816355843 1
force Pt   0.000000000000000   0.047781415549701  -0.612414228837064 1

# Energy components:
   Eewald =   -21648.9928979477408575
       EH =   -20129.8847629800657160
     Eloc =    39660.3470332470751600
      Enl =      -18.0226799625296188
      Exc =     -571.8555577335789621
 Exc_core =      324.9288053389608990
       KE =      580.8899802167911730
-------------------------------------
     Etot =    -1802.5900798210882385
       TS =        0.2359049195215163
-------------------------------------
        F =    -1802.8259847406097833

IonicMinimize: Iter:   1  F: -1802.825984740609783  |grad|_K:  5.068e-03  alpha:  1.000e+00  linmin: -5.802e-01  t[s]:  47818.71

#--- Lowdin population analysis ---
# oxidation-state O -0.170
# oxidation-state C +0.267
# oxidation-state H +0.238
# oxidation-state Pt +0.028 +0.029 +0.028 +0.028 -0.007 -0.007 -0.007 -0.007 +0.012 +0.009 +0.012 +0.013 -0.023 -0.021 -0.023 -0.021 +0.018 +0.005 -0.003 -0.073


-------- Electronic minimization -----------
	FillingsUpdate:  mu: -0.242711724  nElectrons: 331.000000
ElecMinimize: Iter:   0  F: -1802.602408069835519  |grad|_K:  1.148e-04  alpha:  1.000e+00
	FillingsUpdate:  mu: -0.186827464  nElectrons: 331.000000
	SubspaceRotationAdjust: set factor to 0.0274
ElecMinimize: Iter:   1  F: -1802.795879437764370  |grad|_K:  3.338e-05  alpha:  3.155e-01  linmin:  6.595e-03  t[s]:  48505.27
	FillingsUpdate:  mu: -0.196256186  nElectrons: 331.000000
	SubspaceRotationAdjust: set factor to 0.0165
ElecMinimize: Iter:   2  F: -1802.809348111242571  |grad|_K:  1.548e-05  alpha:  2.596e-01  linmin: -1.098e-04  t[s]:  48898.42
	FillingsUpdate:  mu: -0.203061837  nElectrons: 331.000000
	SubspaceRotationAdjust: set factor to 0.0181
ElecMinimize: Iter:   3  F: -1802.812714458890923  |grad|_K:  6.184e-06  alpha:  2.988e-01  linmin:  7.320e-06  t[s]:  49289.32
	FillingsUpdate:  mu: -0.203530272  nElectrons: 331.000000
	SubspaceRotationAdjust: set factor to 0.0233
ElecMinimize: Iter:   4  F: -1802.813521133086397  |grad|_K:  4.555e-06  alpha:  4.487e-01  linmin:  2.684e-06  t[s]:  49676.60
	FillingsUpdate:  mu: -0.203873852  nElectrons: 331.000000
	SubspaceRotationAdjust: set factor to 0.0264
ElecMinimize: Iter:   5  F: -1802.814235537621698  |grad|_K:  5.257e-06  alpha:  7.323e-01  linmin: -3.560e-05  t[s]:  50068.16
	FillingsUpdate:  mu: -0.204407666  nElectrons: 331.000000
	SubspaceRotationAdjust: set factor to 0.0287
ElecMinimize: Iter:   6  F: -1802.815135176971808  |grad|_K:  6.522e-06  alpha:  6.917e-01  linmin:  2.006e-05  t[s]:  50460.45
	FillingsUpdate:  mu: -0.205045981  nElectrons: 331.000000
	SubspaceRotationAdjust: set factor to 0.0306
ElecMinimize: Iter:   7  F: -1802.817281281435953  |grad|_K:  9.469e-06  alpha:  1.072e+00  linmin: -4.453e-05  t[s]:  50848.98
	FillingsUpdate:  mu: -0.202337845  nElectrons: 331.000000
	SubspaceRotationAdjust: set factor to 0.0317
ElecMinimize: Iter:   8  F: -1802.821274146840096  |grad|_K:  1.087e-05  alpha:  9.442e-01  linmin: -4.288e-05  t[s]:  51237.34
	FillingsUpdate:  mu: -0.200910053  nElectrons: 331.000000
	SubspaceRotationAdjust: set factor to 0.0272
ElecMinimize: Iter:   9  F: -1802.824011782925481  |grad|_K:  9.405e-06  alpha:  4.733e-01  linmin: -1.556e-04  t[s]:  51634.40
	FillingsUpdate:  mu: -0.203232935  nElectrons: 331.000000
	SubspaceRotationAdjust: set factor to 0.0225
ElecMinimize: Iter:  10  F: -1802.825593857063950  |grad|_K:  6.378e-06  alpha:  3.754e-01  linmin: -4.624e-05  t[s]:  52025.95
	FillingsUpdate:  mu: -0.203535911  nElectrons: 331.000000
	SubspaceRotationAdjust: set factor to 0.0272
ElecMinimize: Iter:  11  F: -1802.826419270477345  |grad|_K:  3.777e-06  alpha:  4.297e-01  linmin:  2.439e-05  t[s]:  52418.99
	FillingsUpdate:  mu: -0.203243844  nElectrons: 331.000000
	SubspaceRotationAdjust: set factor to 0.0323
ElecMinimize: Iter:  12  F: -1802.826722464842305  |grad|_K:  2.692e-06  alpha:  4.529e-01  linmin:  2.038e-05  t[s]:  52813.55
	FillingsUpdate:  mu: -0.203428793  nElectrons: 331.000000
	SubspaceRotationAdjust: set factor to 0.0349
ElecMinimize: Iter:  13  F: -1802.826879186244014  |grad|_K:  2.567e-06  alpha:  4.605e-01  linmin: -1.376e-05  t[s]:  53205.59
	FillingsUpdate:  mu: -0.203836034  nElectrons: 331.000000
	SubspaceRotationAdjust: set factor to 0.0402
ElecMinimize: Iter:  14  F: -1802.827053929393060  |grad|_K:  2.523e-06  alpha:  5.642e-01  linmin:  3.227e-05  t[s]:  53600.01
	FillingsUpdate:  mu: -0.204908074  nElectrons: 331.000000
	SubspaceRotationAdjust: set factor to 0.0456
ElecMinimize: Iter:  15  F: -1802.827244887774896  |grad|_K:  2.478e-06  alpha:  6.389e-01  linmin: -4.568e-06  t[s]:  53992.92
	FillingsUpdate:  mu: -0.205818822  nElectrons: 331.000000
	SubspaceRotationAdjust: set factor to 0.0502
ElecMinimize: Iter:  16  F: -1802.827418707888000  |grad|_K:  2.355e-06  alpha:  6.018e-01  linmin:  6.832e-06  t[s]:  54385.46
	FillingsUpdate:  mu: -0.206379853  nElectrons: 331.000000
	SubspaceRotationAdjust: set factor to 0.0585
ElecMinimize: Iter:  17  F: -1802.827561092305359  |grad|_K:  1.869e-06  alpha:  5.465e-01  linmin:  1.865e-06  t[s]:  54779.76
	FillingsUpdate:  mu: -0.206672923  nElectrons: 331.000000
	SubspaceRotationAdjust: set factor to 0.0744
ElecMinimize: Iter:  18  F: -1802.827646167510238  |grad|_K:  1.483e-06  alpha:  5.179e-01  linmin: -4.589e-07  t[s]:  55171.21
	FillingsUpdate:  mu: -0.206770473  nElectrons: 331.000000
	SubspaceRotationAdjust: set factor to 0.0812
ElecMinimize: Iter:  19  F: -1802.827704183702281  |grad|_K:  1.558e-06  alpha:  5.609e-01  linmin:  1.098e-05  t[s]:  55561.15
	FillingsUpdate:  mu: -0.206804571  nElectrons: 331.000000
	SubspaceRotationAdjust: set factor to 0.062
ElecMinimize: Iter:  20  F: -1802.827732393977158  |grad|_K:  1.772e-06  alpha:  2.475e-01  linmin:  9.624e-06  t[s]:  55952.23
	FillingsUpdate:  mu: -0.206586052  nElectrons: 331.000000
	SubspaceRotationAdjust: set factor to 0.0568
ElecMinimize: Iter:  21  F: -1802.827765273977548  |grad|_K:  1.110e-06  alpha:  2.228e-01  linmin:  1.050e-05  t[s]:  56344.74
	FillingsUpdate:  mu: -0.206336733  nElectrons: 331.000000
	SubspaceRotationAdjust: set factor to 0.0628
ElecMinimize: Iter:  22  F: -1802.827794055685445  |grad|_K:  9.042e-07  alpha:  4.970e-01  linmin:  1.431e-06  t[s]:  56736.46
	FillingsUpdate:  mu: -0.206117571  nElectrons: 331.000000
	SubspaceRotationAdjust: set factor to 0.0684
ElecMinimize: Iter:  23  F: -1802.827813859009893  |grad|_K:  7.088e-07  alpha:  5.153e-01  linmin:  4.610e-06  t[s]:  57128.65
	FillingsUpdate:  mu: -0.205952501  nElectrons: 331.000000
	SubspaceRotationAdjust: set factor to 0.0746
ElecMinimize: Iter:  24  F: -1802.827823887344493  |grad|_K:  5.374e-07  alpha:  4.248e-01  linmin: -1.731e-06  t[s]:  57515.99
	FillingsUpdate:  mu: -0.205833084  nElectrons: 331.000000
	SubspaceRotationAdjust: set factor to 0.0575
ElecMinimize: Iter:  25  F: -1802.827827698384681  |grad|_K:  6.087e-07  alpha:  2.806e-01  linmin:  1.389e-06  t[s]:  57906.77
	FillingsUpdate:  mu: -0.205792022  nElectrons: 331.000000
	SubspaceRotationAdjust: set factor to 0.0531
ElecMinimize: Iter:  26  F: -1802.827831408622160  |grad|_K:  3.834e-07  alpha:  2.130e-01  linmin:  5.815e-07  t[s]:  58298.70
	FillingsUpdate:  mu: -0.205776393  nElectrons: 331.000000
	SubspaceRotationAdjust: set factor to 0.0721
ElecMinimize: Iter:  27  F: -1802.827834726004539  |grad|_K:  2.990e-07  alpha:  4.804e-01  linmin:  6.431e-06  t[s]:  58693.51
	FillingsUpdate:  mu: -0.205761765  nElectrons: 331.000000
	SubspaceRotationAdjust: set factor to 0.0857
ElecMinimize: Iter:  28  F: -1802.827837169488703  |grad|_K:  3.274e-07  alpha:  5.818e-01  linmin: -1.484e-06  t[s]:  59088.20
	FillingsUpdate:  mu: -0.205781149  nElectrons: 331.000000
	SubspaceRotationAdjust: set factor to 0.0644
ElecMinimize: Iter:  29  F: -1802.827838874114832  |grad|_K:  4.429e-07  alpha:  3.384e-01  linmin:  7.293e-07  t[s]:  59478.77
	FillingsUpdate:  mu: -0.205778148  nElectrons: 331.000000
	SubspaceRotationAdjust: set factor to 0.0507
ElecMinimize: Iter:  30  F: -1802.827840530265803  |grad|_K:  2.880e-07  alpha:  1.794e-01  linmin:  1.259e-07  t[s]:  59870.66
	FillingsUpdate:  mu: -0.205823139  nElectrons: 331.000000
	SubspaceRotationAdjust: set factor to 0.0627
ElecMinimize: Iter:  31  F: -1802.827842426695952  |grad|_K:  2.300e-07  alpha:  4.870e-01  linmin:  6.704e-06  t[s]:  60260.98
	FillingsUpdate:  mu: -0.205857870  nElectrons: 331.000000
	SubspaceRotationAdjust: set factor to 0.0654
ElecMinimize: Iter:  32  F: -1802.827843631632049  |grad|_K:  2.416e-07  alpha:  4.848e-01  linmin:  3.136e-06  t[s]:  60650.32
	FillingsUpdate:  mu: -0.205862395  nElectrons: 331.000000
	SubspaceRotationAdjust: set factor to 0.0547
ElecMinimize: Iter:  33  F: -1802.827844250243061  |grad|_K:  2.209e-07  alpha:  2.255e-01  linmin: -1.693e-06  t[s]:  61041.68
	FillingsUpdate:  mu: -0.205893501  nElectrons: 331.000000
	SubspaceRotationAdjust: set factor to 0.0636
ElecMinimize: Iter:  34  F: -1802.827844989840742  |grad|_K:  1.549e-07  alpha:  3.224e-01  linmin:  4.646e-06  t[s]:  61427.85
	FillingsUpdate:  mu: -0.205887966  nElectrons: 331.000000
	SubspaceRotationAdjust: set factor to 0.0801
ElecMinimize: Iter:  35  F: -1802.827845567906252  |grad|_K:  1.419e-07  alpha:  5.115e-01  linmin: -2.123e-05  t[s]:  61815.72
	FillingsUpdate:  mu: -0.205849686  nElectrons: 331.000000
	SubspaceRotationAdjust: set factor to 0.0913
ElecMinimize: Iter:  36  F: -1802.827846075162597  |grad|_K:  1.342e-07  alpha:  5.341e-01  linmin: -5.889e-06  t[s]:  62205.65
	FillingsUpdate:  mu: -0.205834698  nElectrons: 331.000000
	SubspaceRotationAdjust: set factor to 0.0736
ElecMinimize: Iter:  37  F: -1802.827846271906992  |grad|_K:  1.548e-07  alpha:  2.319e-01  linmin: -1.984e-06  t[s]:  62594.33
	FillingsUpdate:  mu: -0.205798881  nElectrons: 331.000000
	SubspaceRotationAdjust: set factor to 0.0561
ElecMinimize: Iter:  38  F: -1802.827846480862036  |grad|_K:  9.027e-08  alpha:  1.846e-01  linmin:  1.908e-05  t[s]:  62987.09
	FillingsUpdate:  mu: -0.205778934  nElectrons: 331.000000
	SubspaceRotationAdjust: set factor to 0.0611
ElecMinimize: Iter:  39  F: -1802.827846643563362  |grad|_K:  6.481e-08  alpha:  4.114e-01  linmin: -3.125e-04  t[s]:  63381.01
	FillingsUpdate:  mu: -0.205766408  nElectrons: 331.000000
	SubspaceRotationAdjust: set factor to 0.0708
ElecMinimize: Iter:  40  F: -1802.827846728552231  |grad|_K:  4.873e-08  alpha:  4.128e-01  linmin: -1.781e-04  t[s]:  63773.75
	FillingsUpdate:  mu: -0.205758881  nElectrons: 331.000000
	SubspaceRotationAdjust: set factor to 0.0564
ElecMinimize: Iter:  41  F: -1802.827846775287071  |grad|_K:  5.353e-08  alpha:  4.071e-01  linmin:  2.275e-04  t[s]:  64163.05
	FillingsUpdate:  mu: -0.205751358  nElectrons: 331.000000
	SubspaceRotationAdjust: set factor to 0.0493
ElecMinimize: Iter:  42  F: -1802.827846798538758  |grad|_K:  3.937e-08  alpha:  1.804e-01  linmin: -5.291e-06  t[s]:  64551.69
	FillingsUpdate:  mu: -0.205749433  nElectrons: 331.000000
	SubspaceRotationAdjust: set factor to 0.073
ElecMinimize: Iter:  43  F: -1802.827846830844919  |grad|_K:  3.211e-08  alpha:  4.082e-01  linmin: -5.384e-04  t[s]:  64948.07
	FillingsUpdate:  mu: -0.205752639  nElectrons: 331.000000
	SubspaceRotationAdjust: set factor to 0.0564
ElecMinimize: Iter:  44  F: -1802.827846854474501  |grad|_K:  4.522e-08  alpha:  4.311e-01  linmin:  1.106e-04  t[s]:  65339.08
	FillingsUpdate:  mu: -0.205753066  nElectrons: 331.000000
	SubspaceRotationAdjust: set factor to 0.053
ElecMinimize: Iter:  45  F: -1802.827846871072097  |grad|_K:  3.374e-08  alpha:  1.816e-01  linmin: -2.227e-05  t[s]:  65730.35
	FillingsUpdate:  mu: -0.205755740  nElectrons: 331.000000
	SubspaceRotationAdjust: set factor to 0.0569
ElecMinimize: Iter:  46  F: -1802.827846893995456  |grad|_K:  3.601e-08  alpha:  4.189e-01  linmin: -6.663e-05  t[s]:  66120.24
	FillingsUpdate:  mu: -0.205760641  nElectrons: 331.000000
	SubspaceRotationAdjust: set factor to 0.0465
ElecMinimize: Iter:  47  F: -1802.827846906859349  |grad|_K:  3.007e-08  alpha:  2.020e-01  linmin: -1.963e-06  t[s]:  66513.01
	FillingsUpdate:  mu: -0.205766784  nElectrons: 331.000000
	SubspaceRotationAdjust: set factor to 0.065
ElecMinimize: Iter:  48  F: -1802.827846921861010  |grad|_K:  2.347e-08  alpha:  3.487e-01  linmin: -8.920e-05  t[s]:  66903.96
	FillingsUpdate:  mu: -0.205770175  nElectrons: 331.000000
	SubspaceRotationAdjust: set factor to 0.0545
ElecMinimize: Iter:  49  F: -1802.827846930027818  |grad|_K:  2.763e-08  alpha:  3.154e-01  linmin:  8.595e-05  t[s]:  67295.63
	FillingsUpdate:  mu: -0.205776339  nElectrons: 331.000000
	SubspaceRotationAdjust: set factor to 0.0614
ElecMinimize: Iter:  50  F: -1802.827846937944514  |grad|_K:  1.849e-08  alpha:  2.217e-01  linmin:  2.406e-05  t[s]:  67682.88
ElecMinimize: Converged (|Delta F|<1.000000e-08 for 2 iters).
Setting wave functions to eigenvectors of Hamiltonian

# Ionic positions in lattice coordinates:
ion O   0.500000000000000   0.311413623619771   0.273972687052047 1
ion C   0.500000000000000   0.496831990810736   0.247515146193503 1
ion H   0.500000000000000   0.682246987599388   0.266517163366440 1
ion Pt   0.000000000000000   0.000000000000000  -0.166700000000000 0
ion Pt   0.500000000000000   0.500000000000000  -0.166700000000000 0
ion Pt   0.000000000000000   0.500000000000000  -0.166700000000000 0
ion Pt   0.500000000000000   0.000000000000000  -0.166700000000000 0
ion Pt   0.750000000000000   0.250000000000000  -0.083300000000000 0
ion Pt   0.250000000000000   0.750000000000000  -0.083300000000000 0
ion Pt   0.250000000000000   0.250000000000000  -0.083300000000000 0
ion Pt   0.750000000000000   0.750000000000000  -0.083300000000000 0
ion Pt   0.500000000000000   0.000025583932266   0.000046600438908 1
ion Pt   0.000000000000000  -0.000034931504197  -0.000324086676531 1
ion Pt   0.000000000000000   0.500087324082569   0.000120228284639 1
ion Pt   0.500000000000000   0.499979226825608   0.000030511009444 1
ion Pt   0.750580342687408   0.249530746776092   0.083516483178846 1
ion Pt   0.249491241118862   0.750726936695813   0.083479967759163 1
ion Pt   0.249419657312592   0.249530746776092   0.083516483178846 1
ion Pt   0.750508758881138   0.750726936695813   0.083479967759163 1
ion Pt   0.000000000000000  -0.000072166867326   0.166093132785448 1
ion Pt   0.000000000000000   0.500141050433371   0.165812170108579 1
ion Pt   0.500000000000000   0.000166912650230   0.165878098321802 1
ion Pt   0.500000000000000   0.501719904319153   0.165025210978739 1


# Forces in Lattice coordinates:
force O   0.000000000000000  -0.019577071345624   0.389216771197759 1
force C   0.000000000000000  -0.026450028499399   0.014308417562300 1
force H   0.000000000000000  -0.011601430562257   0.129975509917235 1
force Pt   0.000000000000000   0.000191233769017   0.335589794057595 0
force Pt   0.000000000000000  -0.000344010113534   0.350097307312934 0
force Pt   0.000000000000000  -0.000146319239018   0.333559324291052 0
force Pt   0.000000000000000  -0.000132673390076   0.324947180565308 0
force Pt  -0.002498718805535   0.002486117227429  -0.291420453485064 0
force Pt   0.002951424128368  -0.002530238872777  -0.295604191028141 0
force Pt   0.002498718805535   0.002486117227429  -0.291420453485064 0
force Pt  -0.002951424128368  -0.002530238872777  -0.295604191028141 0
force Pt   0.000000000000000   0.001016578467732   0.027247596508194 1
force Pt   0.000000000000000   0.001480643230734  -0.105407906790508 1
force Pt   0.000000000000000   0.001256373054549   0.052515159780348 1
force Pt   0.000000000000000  -0.000506621631429   0.037696203366673 1
force Pt   0.010744082249662  -0.008195211292087  -0.025408267200599 1
force Pt  -0.011661272312517   0.016904722966094  -0.057209977413030 1
force Pt  -0.010744082249662  -0.008195211292087  -0.025408267200599 1
force Pt   0.011661272312517   0.016904722966094  -0.057209977413030 1
force Pt   0.000000000000000  -0.000167830612676  -0.204461959684514 1
force Pt   0.000000000000000   0.003647047011531  -0.323382631936792 1
force Pt   0.000000000000000   0.007703649391726  -0.315240198054060 1
force Pt   0.000000000000000   0.025553548317556   0.299036783354359 1

# Energy components:
   Eewald =   -21631.9530745875526918
       EH =   -20112.7767910502370796
     Eloc =    39626.2366979610960698
      Enl =      -18.0281595154972045
      Exc =     -571.8461894876830911
 Exc_core =      324.9288101642235347
       KE =      580.8467336141251280
-------------------------------------
     Etot =    -1802.5919729015249686
       TS =        0.2358740364196502
-------------------------------------
        F =    -1802.8278469379445141

IonicMinimize: Iter:   2  F: -1802.827846937944514  |grad|_K:  2.564e-03  alpha:  1.000e+00  linmin: -2.671e-01  t[s]:  67746.92

#--- Lowdin population analysis ---
# oxidation-state O -0.170
# oxidation-state C +0.271
# oxidation-state H +0.235
# oxidation-state Pt +0.027 +0.027 +0.027 +0.027 -0.007 -0.007 -0.007 -0.007 +0.012 +0.009 +0.012 +0.013 -0.022 -0.021 -0.022 -0.021 +0.019 +0.007 -0.001 -0.080


-------- Electronic minimization -----------
	FillingsUpdate:  mu: -0.232176860  nElectrons: 331.000000
ElecMinimize: Iter:   0  F: -1802.682426205281899  |grad|_K:  9.457e-05  alpha:  1.000e+00
	FillingsUpdate:  mu: -0.165239908  nElectrons: 331.000000
	SubspaceRotationAdjust: set factor to 0.0424
ElecMinimize: Iter:   1  F: -1802.799412271089977  |grad|_K:  5.103e-05  alpha:  2.794e-01  linmin:  1.452e-03  t[s]:  68434.42
	FillingsUpdate:  mu: -0.188631964  nElectrons: 331.000000
	SubspaceRotationAdjust: set factor to 0.0237
ElecMinimize: Iter:   2  F: -1802.814286633899883  |grad|_K:  1.826e-05  alpha:  1.220e-01  linmin:  6.792e-05  t[s]:  68827.69
	FillingsUpdate:  mu: -0.199176233  nElectrons: 331.000000
	SubspaceRotationAdjust: set factor to 0.0388
ElecMinimize: Iter:   3  F: -1802.819642320913317  |grad|_K:  7.643e-06  alpha:  3.419e-01  linmin: -3.194e-06  t[s]:  69225.66
	FillingsUpdate:  mu: -0.200656563  nElectrons: 331.000000
	SubspaceRotationAdjust: set factor to 0.0345
ElecMinimize: Iter:   4  F: -1802.820541575422112  |grad|_K:  5.303e-06  alpha:  3.274e-01  linmin:  6.344e-06  t[s]:  69618.41
	FillingsUpdate:  mu: -0.201887121  nElectrons: 331.000000
	SubspaceRotationAdjust: set factor to 0.0368
ElecMinimize: Iter:   5  F: -1802.821069276583785  |grad|_K:  4.806e-06  alpha:  3.991e-01  linmin: -3.809e-05  t[s]:  70006.84
	FillingsUpdate:  mu: -0.204495352  nElectrons: 331.000000
	SubspaceRotationAdjust: set factor to 0.0433
ElecMinimize: Iter:   6  F: -1802.821880485049860  |grad|_K:  4.922e-06  alpha:  7.475e-01  linmin:  5.798e-05  t[s]:  70402.32
	FillingsUpdate:  mu: -0.208575464  nElectrons: 331.000000
	SubspaceRotationAdjust: set factor to 0.0473
ElecMinimize: Iter:   7  F: -1802.822989595340459  |grad|_K:  6.522e-06  alpha:  9.751e-01  linmin: -5.230e-05  t[s]:  70788.40
	FillingsUpdate:  mu: -0.207981084  nElectrons: 331.000000
	SubspaceRotationAdjust: set factor to 0.0462
ElecMinimize: Iter:   8  F: -1802.824799644815585  |grad|_K:  9.078e-06  alpha:  8.965e-01  linmin:  9.515e-05  t[s]:  71174.67
	FillingsUpdate:  mu: -0.208124776  nElectrons: 331.000000
	SubspaceRotationAdjust: set factor to 0.0338
ElecMinimize: Iter:   9  F: -1802.826133733616643  |grad|_K:  8.840e-06  alpha:  3.795e-01  linmin:  2.996e-04  t[s]:  71565.64
	FillingsUpdate:  mu: -0.209248847  nElectrons: 331.000000
	SubspaceRotationAdjust: set factor to 0.0241
ElecMinimize: Iter:  10  F: -1802.827244067113952  |grad|_K:  5.515e-06  alpha:  3.145e-01  linmin:  9.145e-05  t[s]:  71949.95
	FillingsUpdate:  mu: -0.211265327  nElectrons: 331.000000
	SubspaceRotationAdjust: set factor to 0.0287
ElecMinimize: Iter:  11  F: -1802.827937568775269  |grad|_K:  3.744e-06  alpha:  4.894e-01  linmin: -5.121e-05  t[s]:  72343.15
	FillingsUpdate:  mu: -0.211042806  nElectrons: 331.000000
	SubspaceRotationAdjust: set factor to 0.0326
ElecMinimize: Iter:  12  F: -1802.828224098637065  |grad|_K:  2.553e-06  alpha:  4.328e-01  linmin: -1.301e-05  t[s]:  72732.40
	FillingsUpdate:  mu: -0.209640441  nElectrons: 331.000000
	SubspaceRotationAdjust: set factor to 0.0383
ElecMinimize: Iter:  13  F: -1802.828361534150645  |grad|_K:  1.936e-06  alpha:  4.482e-01  linmin:  2.013e-05  t[s]:  73124.19
	FillingsUpdate:  mu: -0.208637052  nElectrons: 331.000000
	SubspaceRotationAdjust: set factor to 0.0406
ElecMinimize: Iter:  14  F: -1802.828447028171922  |grad|_K:  1.823e-06  alpha:  4.856e-01  linmin: -1.346e-05  t[s]:  73513.61
	FillingsUpdate:  mu: -0.207444402  nElectrons: 331.000000
	SubspaceRotationAdjust: set factor to 0.0417
ElecMinimize: Iter:  15  F: -1802.828518562085264  |grad|_K:  1.645e-06  alpha:  4.574e-01  linmin:  1.800e-05  t[s]:  73902.26
	FillingsUpdate:  mu: -0.206282569  nElectrons: 331.000000
	SubspaceRotationAdjust: set factor to 0.0419
ElecMinimize: Iter:  16  F: -1802.828580005748563  |grad|_K:  1.434e-06  alpha:  4.838e-01  linmin: -3.485e-06  t[s]:  74295.88
	FillingsUpdate:  mu: -0.205281744  nElectrons: 331.000000
	SubspaceRotationAdjust: set factor to 0.0402
ElecMinimize: Iter:  17  F: -1802.828627128374819  |grad|_K:  1.328e-06  alpha:  4.872e-01  linmin:  2.633e-05  t[s]:  74688.98
	FillingsUpdate:  mu: -0.204943792  nElectrons: 331.000000
	SubspaceRotationAdjust: set factor to 0.0363
ElecMinimize: Iter:  18  F: -1802.828660366785016  |grad|_K:  1.145e-06  alpha:  4.019e-01  linmin: -4.266e-06  t[s]:  75082.90
	FillingsUpdate:  mu: -0.204704940  nElectrons: 331.000000
	SubspaceRotationAdjust: set factor to 0.035
ElecMinimize: Iter:  19  F: -1802.828685445710335  |grad|_K:  8.693e-07  alpha:  4.066e-01  linmin:  1.769e-05  t[s]:  75476.62
	FillingsUpdate:  mu: -0.204589854  nElectrons: 331.000000
	SubspaceRotationAdjust: set factor to 0.0394
ElecMinimize: Iter:  20  F: -1802.828702805313696  |grad|_K:  7.033e-07  alpha:  4.890e-01  linmin: -3.219e-06  t[s]:  75868.20
	FillingsUpdate:  mu: -0.204704987  nElectrons: 331.000000
	SubspaceRotationAdjust: set factor to 0.0462
ElecMinimize: Iter:  21  F: -1802.828715098649354  |grad|_K:  6.026e-07  alpha:  5.286e-01  linmin:  2.448e-06  t[s]:  76260.25
	FillingsUpdate:  mu: -0.205106721  nElectrons: 331.000000
	SubspaceRotationAdjust: set factor to 0.0515
ElecMinimize: Iter:  22  F: -1802.828723305603262  |grad|_K:  5.361e-07  alpha:  4.809e-01  linmin: -2.571e-06  t[s]:  76654.77
	FillingsUpdate:  mu: -0.205396548  nElectrons: 331.000000
	SubspaceRotationAdjust: set factor to 0.0486
ElecMinimize: Iter:  23  F: -1802.828729522211006  |grad|_K:  5.865e-07  alpha:  4.601e-01  linmin:  6.729e-06  t[s]:  77045.45
	FillingsUpdate:  mu: -0.205633140  nElectrons: 331.000000
	SubspaceRotationAdjust: set factor to 0.0434
ElecMinimize: Iter:  24  F: -1802.828734814441987  |grad|_K:  5.177e-07  alpha:  3.273e-01  linmin: -2.725e-06  t[s]:  77434.06
	FillingsUpdate:  mu: -0.205768963  nElectrons: 331.000000
	SubspaceRotationAdjust: set factor to 0.045
ElecMinimize: Iter:  25  F: -1802.828740538787088  |grad|_K:  4.083e-07  alpha:  4.542e-01  linmin: -6.656e-06  t[s]:  77828.34
	FillingsUpdate:  mu: -0.205960565  nElectrons: 331.000000
	SubspaceRotationAdjust: set factor to 0.0469
ElecMinimize: Iter:  26  F: -1802.828744581648380  |grad|_K:  3.713e-07  alpha:  5.158e-01  linmin: -3.678e-06  t[s]:  78217.56
	FillingsUpdate:  mu: -0.206032855  nElectrons: 331.000000
	SubspaceRotationAdjust: set factor to 0.0449
ElecMinimize: Iter:  27  F: -1802.828747375927605  |grad|_K:  3.273e-07  alpha:  4.312e-01  linmin:  3.918e-06  t[s]:  78609.60
	FillingsUpdate:  mu: -0.206049017  nElectrons: 331.000000
[...]
ElecMinimize: Iter:   9  G: -1745.371244736164272  |grad|_K:  8.597e-07  alpha:  4.602e-01  linmin: -9.875e-06  t[s]:   9850.76
	FillingsUpdate:  mu: -0.173600000  nElectrons: 331.038310
	SubspaceRotationAdjust: set factor to 0.00767
ElecMinimize: Iter:  10  G: -1745.371257255998898  |grad|_K:  6.506e-07  alpha:  3.602e-01  linmin:  7.131e-06  t[s]:  10237.33
	FillingsUpdate:  mu: -0.173600000  nElectrons: 331.039490
	SubspaceRotationAdjust: set factor to 0.00923
ElecMinimize: Iter:  11  G: -1745.371266669643774  |grad|_K:  5.345e-07  alpha:  4.731e-01  linmin: -5.105e-06  t[s]:  10625.67
	FillingsUpdate:  mu: -0.173600000  nElectrons: 331.039264
	SubspaceRotationAdjust: set factor to 0.0116
ElecMinimize: Iter:  12  G: -1745.371273637723789  |grad|_K:  5.174e-07  alpha:  5.187e-01  linmin:  1.942e-07  t[s]:  11014.92
	FillingsUpdate:  mu: -0.173600000  nElectrons: 331.037209
	SubspaceRotationAdjust: set factor to 0.011
ElecMinimize: Iter:  13  G: -1745.371280551633845  |grad|_K:  5.799e-07  alpha:  5.494e-01  linmin:  3.937e-06  t[s]:  11403.76
ElecMinimize: Converged (|Delta G|<6.976808e-06 for 2 iters).
Setting wave functions to eigenvectors of Hamiltonian

Electronic minimization # 2 changed total free energy by -1.779969e-04 at t[s]:  11421.29

---------------------- Fluid Minimization # 3 -----------------------
FluidMinimize: Iter:   0  G: -0.008402466957335  |grad|_K:  1.664e-04  alpha:  1.000e+00
FluidMinimize: 	Step increased G by 6.938894e-18, reducing alpha to 1.518635e-27.
FluidMinimize: 	Step increased G by 6.938894e-18, reducing alpha to 1.518635e-28.
FluidMinimize: 	Step increased G by 1.387779e-17, reducing alpha to 1.518635e-29.
FluidMinimize: 	Step increased G by 6.938894e-18, reducing alpha to 1.518635e-30.
FluidMinimize: 	Step increased G by 6.938894e-18, reducing alpha to 1.518635e-31.
FluidMinimize: 	Step increased G by 1.387779e-17, reducing alpha to 1.518635e-32.
FluidMinimize: 	Step failed to reduce G after 6 attempts. Quitting step.
FluidMinimize: 	Undoing step.
FluidMinimize: 	Step failed along negative gradient direction.
FluidMinimize: Probably at roundoff error limit. (Stopping)

Fluid minimization # 3 changed total free energy by 6.938894e-18 at t[s]:  11423.99

-------------------- Electronic Minimization # 3 ---------------------
	FillingsUpdate:  mu: -0.173600000  nElectrons: 331.815490
ElecMinimize: Iter:   0  G: -1745.045807642539557  |grad|_K:  2.319e-04  alpha:  1.000e+00
	FillingsUpdate:  mu: -0.173600000  nElectrons: 331.108517
	SubspaceRotationAdjust: set factor to 0.006
ElecMinimize: Iter:   1  G: -1745.363464114610451  |grad|_K:  2.525e-05  alpha:  1.132e-01  linmin: -2.243e-01  t[s]:  11979.00
	FillingsUpdate:  mu: -0.173600000  nElectrons: 331.016635
	SubspaceRotationAdjust: set factor to 0.00367
ElecMinimize: Iter:   2  G: -1745.367662307148521  |grad|_K:  7.770e-06  alpha:  1.272e-01  linmin:  6.751e-04  t[s]:  12369.92
	FillingsUpdate:  mu: -0.173600000  nElectrons: 331.005072
	SubspaceRotationAdjust: set factor to 0.00406
ElecMinimize: Iter:   3  G: -1745.368683499294093  |grad|_K:  4.042e-06  alpha:  3.603e-01  linmin: -2.453e-04  t[s]:  12763.14
	FillingsUpdate:  mu: -0.173600000  nElectrons: 331.017791
	SubspaceRotationAdjust: set factor to 0.00506
ElecMinimize: Iter:   4  G: -1745.369084484983659  |grad|_K:  3.211e-06  alpha:  5.217e-01  linmin: -1.977e-04  t[s]:  13150.48
	FillingsUpdate:  mu: -0.173600000  nElectrons: 331.024253
	SubspaceRotationAdjust: set factor to 0.00653
ElecMinimize: Iter:   5  G: -1745.369411186730076  |grad|_K:  3.263e-06  alpha:  6.735e-01  linmin: -2.836e-05  t[s]:  13538.11
	FillingsUpdate:  mu: -0.173600000  nElectrons: 331.019778
	SubspaceRotationAdjust: set factor to 0.00677
ElecMinimize: Iter:   6  G: -1745.369852373876256  |grad|_K:  4.245e-06  alpha:  8.815e-01  linmin:  1.386e-04  t[s]:  13925.15
	FillingsUpdate:  mu: -0.173600000  nElectrons: 331.030041
	SubspaceRotationAdjust: set factor to 0.00696
ElecMinimize: Iter:   7  G: -1745.370394171606222  |grad|_K:  4.051e-06  alpha:  6.416e-01  linmin: -3.053e-05  t[s]:  14313.74
	FillingsUpdate:  mu: -0.173600000  nElectrons: 331.031764
	SubspaceRotationAdjust: set factor to 0.00759
ElecMinimize: Iter:   8  G: -1745.370846604643702  |grad|_K:  3.204e-06  alpha:  5.862e-01  linmin:  2.140e-05  t[s]:  14703.80
	FillingsUpdate:  mu: -0.173600000  nElectrons: 331.030992
	SubspaceRotationAdjust: set factor to 0.00835
ElecMinimize: Iter:   9  G: -1745.371070808799459  |grad|_K:  2.257e-06  alpha:  4.647e-01  linmin:  2.299e-05  t[s]:  15097.65
	FillingsUpdate:  mu: -0.173600000  nElectrons: 331.037147
	SubspaceRotationAdjust: set factor to 0.00875
ElecMinimize: Iter:  10  G: -1745.371182873292810  |grad|_K:  1.686e-06  alpha:  4.679e-01  linmin: -5.217e-05  t[s]:  15489.31
	FillingsUpdate:  mu: -0.173600000  nElectrons: 331.034422
	SubspaceRotationAdjust: set factor to 0.00908
ElecMinimize: Iter:  11  G: -1745.371239296935073  |grad|_K:  1.194e-06  alpha:  4.222e-01  linmin:  2.715e-05  t[s]:  15878.25
	FillingsUpdate:  mu: -0.173600000  nElectrons: 331.036958
	SubspaceRotationAdjust: set factor to 0.00936
ElecMinimize: Iter:  12  G: -1745.371268872843757  |grad|_K:  8.557e-07  alpha:  4.412e-01  linmin: -1.457e-05  t[s]:  16270.33
	FillingsUpdate:  mu: -0.173600000  nElectrons: 331.035851
	SubspaceRotationAdjust: set factor to 0.00961
ElecMinimize: Iter:  13  G: -1745.371283996403690  |grad|_K:  5.857e-07  alpha:  4.392e-01  linmin:  8.027e-06  t[s]:  16661.43
	FillingsUpdate:  mu: -0.173600000  nElectrons: 331.036816
	SubspaceRotationAdjust: set factor to 0.01
ElecMinimize: Iter:  14  G: -1745.371291207013201  |grad|_K:  4.065e-07  alpha:  4.472e-01  linmin: -2.903e-06  t[s]:  17050.49
	FillingsUpdate:  mu: -0.173600000  nElectrons: 331.035865
	SubspaceRotationAdjust: set factor to 0.0104
ElecMinimize: Iter:  15  G: -1745.371294589744139  |grad|_K:  3.183e-07  alpha:  4.354e-01  linmin:  2.281e-07  t[s]:  17443.05
	FillingsUpdate:  mu: -0.173600000  nElectrons: 331.036726
	SubspaceRotationAdjust: set factor to 0.0108
ElecMinimize: Iter:  16  G: -1745.371296689166002  |grad|_K:  2.920e-07  alpha:  4.406e-01  linmin: -9.671e-06  t[s]:  17832.31
	FillingsUpdate:  mu: -0.173600000  nElectrons: 331.035751
	SubspaceRotationAdjust: set factor to 0.0111
ElecMinimize: Iter:  17  G: -1745.371298573650392  |grad|_K:  2.950e-07  alpha:  4.700e-01  linmin: -9.881e-07  t[s]:  18222.57
	FillingsUpdate:  mu: -0.173600000  nElectrons: 331.036457
	SubspaceRotationAdjust: set factor to 0.0113
ElecMinimize: Iter:  18  G: -1745.371300933079738  |grad|_K:  3.315e-07  alpha:  5.765e-01  linmin: -3.347e-06  t[s]:  18615.29
	FillingsUpdate:  mu: -0.173600000  nElectrons: 331.035216
	SubspaceRotationAdjust: set factor to 0.0106
ElecMinimize: Iter:  19  G: -1745.371304214541169  |grad|_K:  3.775e-07  alpha:  6.351e-01  linmin:  2.987e-06  t[s]:  19010.72
	FillingsUpdate:  mu: -0.173600000  nElectrons: 331.036209
	SubspaceRotationAdjust: set factor to 0.00884
ElecMinimize: Iter:  20  G: -1745.371307280552401  |grad|_K:  3.721e-07  alpha:  4.578e-01  linmin: -5.459e-08  t[s]:  19399.18
	FillingsUpdate:  mu: -0.173600000  nElectrons: 331.034972
	SubspaceRotationAdjust: set factor to 0.0074
ElecMinimize: Iter:  21  G: -1745.371310060916358  |grad|_K:  3.125e-07  alpha:  4.272e-01  linmin:  2.236e-06  t[s]:  19785.86
	FillingsUpdate:  mu: -0.173600000  nElectrons: 331.035372
	SubspaceRotationAdjust: set factor to 0.00798
ElecMinimize: Iter:  22  G: -1745.371312095540361  |grad|_K:  2.245e-07  alpha:  4.433e-01  linmin:  1.829e-06  t[s]:  20179.73
	FillingsUpdate:  mu: -0.173600000  nElectrons: 331.035494
	SubspaceRotationAdjust: set factor to 0.0098
ElecMinimize: Iter:  23  G: -1745.371313265882463  |grad|_K:  1.757e-07  alpha:  4.944e-01  linmin:  2.209e-05  t[s]:  20570.75
	FillingsUpdate:  mu: -0.173600000  nElectrons: 331.035068
	SubspaceRotationAdjust: set factor to 0.0107
ElecMinimize: Iter:  24  G: -1745.371313974077339  |grad|_K:  1.688e-07  alpha:  4.885e-01  linmin: -1.116e-05  t[s]:  20960.15
ElecMinimize: Converged (|Delta G|<1.779969e-06 for 2 iters).
Setting wave functions to eigenvectors of Hamiltonian

Electronic minimization # 3 changed total free energy by -3.342244e-05 at t[s]:  20978.42

---------------------- Fluid Minimization # 4 -----------------------
FluidMinimize: Iter:   0  G: -0.007895567647675  |grad|_K:  1.537e-04  alpha:  1.000e+00
FluidMinimize: Iter:   1  G: -0.007895567647675  |grad|_K:  1.537e-04  alpha:  4.521e-24  linmin: -1.321e-01  cgtest:  1.000e+00  t[s]:  20979.29
FluidMinimize: Encountered beta<0, resetting CG.
FluidMinimize: Iter:   2  G: -0.007895567647675  |grad|_K:  1.537e-04  alpha:  4.521e-24  linmin: -1.321e-01  cgtest:  1.000e+00  t[s]:  20979.86
FluidMinimize: Converged (|Delta G|<3.342244e-07 for 2 iters).

Fluid minimization # 4 changed total free energy by -1.734723e-18 at t[s]:  20980.16

-------------------- Electronic Minimization # 4 ---------------------
	FillingsUpdate:  mu: -0.173600000  nElectrons: 331.238617
ElecMinimize: Iter:   0  G: -1745.353695377699296  |grad|_K:  5.246e-05  alpha:  1.000e+00
	FillingsUpdate:  mu: -0.173600000  nElectrons: 331.060583
	SubspaceRotationAdjust: set factor to 0.0178
ElecMinimize: Iter:   1  G: -1745.370380018713604  |grad|_K:  5.643e-06  alpha:  1.255e-01  linmin: -4.038e-02  t[s]:  21536.66
	FillingsUpdate:  mu: -0.173600000  nElectrons: 331.037937
	SubspaceRotationAdjust: set factor to 0.0115
ElecMinimize: Iter:   2  G: -1745.370926177067986  |grad|_K:  3.913e-06  alpha:  3.560e-01  linmin:  1.971e-04  t[s]:  21925.86
	FillingsUpdate:  mu: -0.173600000  nElectrons: 331.047281
	SubspaceRotationAdjust: set factor to 0.00807
ElecMinimize: Iter:   3  G: -1745.371019040799865  |grad|_K:  2.208e-06  alpha:  1.292e-01  linmin:  1.409e-04  t[s]:  22317.81
ElecMinimize: 	Predicted alpha/alphaT>3.000000, increasing alphaT to 3.875609e-01.
	FillingsUpdate:  mu: -0.173600000  nElectrons: 331.044579
	SubspaceRotationAdjust: set factor to 0.0131
ElecMinimize: Iter:   4  G: -1745.371116963257236  |grad|_K:  1.607e-06  alpha:  4.277e-01  linmin:  1.242e-05  t[s]:  22800.43
	FillingsUpdate:  mu: -0.173600000  nElectrons: 331.037144
	SubspaceRotationAdjust: set factor to 0.00958
ElecMinimize: Iter:   5  G: -1745.371160028680151  |grad|_K:  1.644e-06  alpha:  3.546e-01  linmin:  2.822e-05  t[s]:  23192.21
	FillingsUpdate:  mu: -0.173600000  nElectrons: 331.041376
	SubspaceRotationAdjust: set factor to 0.00823
ElecMinimize: Iter:   6  G: -1745.371201586989173  |grad|_K:  1.323e-06  alpha:  3.273e-01  linmin: -3.799e-05  t[s]:  23580.21
	FillingsUpdate:  mu: -0.173600000  nElectrons: 331.039652
	SubspaceRotationAdjust: set factor to 0.00981
ElecMinimize: Iter:   7  G: -1745.371252739348620  |grad|_K:  1.093e-06  alpha:  6.212e-01  linmin:  2.474e-05  t[s]:  23972.03
	FillingsUpdate:  mu: -0.173600000  nElectrons: 331.035530
	SubspaceRotationAdjust: set factor to 0.00864
ElecMinimize: Iter:   8  G: -1745.371282993846080  |grad|_K:  1.020e-06  alpha:  5.391e-01  linmin:  3.078e-05  t[s]:  24362.47
	FillingsUpdate:  mu: -0.173600000  nElectrons: 331.038948
	SubspaceRotationAdjust: set factor to 0.00574
ElecMinimize: Iter:   9  G: -1745.371297078418593  |grad|_K:  6.767e-07  alpha:  2.881e-01  linmin:  2.880e-05  t[s]:  24752.65
	FillingsUpdate:  mu: -0.173600000  nElectrons: 331.037585
	SubspaceRotationAdjust: set factor to 0.00729
ElecMinimize: Iter:  10  G: -1745.371306892602433  |grad|_K:  4.359e-07  alpha:  4.560e-01  linmin:  8.260e-06  t[s]:  25149.32
	FillingsUpdate:  mu: -0.173600000  nElectrons: 331.036465
	SubspaceRotationAdjust: set factor to 0.00764
ElecMinimize: Iter:  11  G: -1745.371311094130306  |grad|_K:  3.193e-07  alpha:  4.705e-01  linmin:  2.186e-05  t[s]:  25541.30
	FillingsUpdate:  mu: -0.173600000  nElectrons: 331.037525
	SubspaceRotationAdjust: set factor to 0.00656
ElecMinimize: Iter:  12  G: -1745.371313052851519  |grad|_K:  2.399e-07  alpha:  4.088e-01  linmin: -3.484e-05  t[s]:  25931.00
	FillingsUpdate:  mu: -0.173600000  nElectrons: 331.036931
	SubspaceRotationAdjust: set factor to 0.00742
ElecMinimize: Iter:  13  G: -1745.371314407368118  |grad|_K:  1.763e-07  alpha:  5.001e-01  linmin: -3.233e-05  t[s]:  26324.33
	FillingsUpdate:  mu: -0.173600000  nElectrons: 331.036724
	SubspaceRotationAdjust: set factor to 0.00892
ElecMinimize: Iter:  14  G: -1745.371315235899147  |grad|_K:  1.459e-07  alpha:  5.673e-01  linmin:  4.618e-05  t[s]:  26715.80
	FillingsUpdate:  mu: -0.173600000  nElectrons: 331.037074
	SubspaceRotationAdjust: set factor to 0.00914
ElecMinimize: Iter:  15  G: -1745.371315723285079  |grad|_K:  1.371e-07  alpha:  4.883e-01  linmin:  7.676e-06  t[s]:  27106.70
	FillingsUpdate:  mu: -0.173600000  nElectrons: 331.036520
	SubspaceRotationAdjust: set factor to 0.00882
ElecMinimize: Iter:  16  G: -1745.371316183229283  |grad|_K:  1.376e-07  alpha:  5.215e-01  linmin:  9.561e-05  t[s]:  27499.30
	FillingsUpdate:  mu: -0.173600000  nElectrons: 331.036844
	SubspaceRotationAdjust: set factor to 0.00905
ElecMinimize: Iter:  17  G: -1745.371316762191782  |grad|_K:  1.529e-07  alpha:  6.541e-01  linmin:  1.065e-04  t[s]:  27887.98
	FillingsUpdate:  mu: -0.173600000  nElectrons: 331.036516
	SubspaceRotationAdjust: set factor to 0.00966
ElecMinimize: Iter:  18  G: -1745.371317469194992  |grad|_K:  1.681e-07  alpha:  6.467e-01  linmin: -1.312e-05  t[s]:  28277.72
	FillingsUpdate:  mu: -0.173600000  nElectrons: 331.036441
	SubspaceRotationAdjust: set factor to 0.0105
ElecMinimize: Iter:  19  G: -1745.371318321301715  |grad|_K:  1.546e-07  alpha:  6.405e-01  linmin: -1.295e-05  t[s]:  28669.88
	FillingsUpdate:  mu: -0.173600000  nElectrons: 331.036454
	SubspaceRotationAdjust: set factor to 0.0115
ElecMinimize: Iter:  20  G: -1745.371318963305839  |grad|_K:  1.268e-07  alpha:  5.711e-01  linmin:  3.702e-07  t[s]:  29057.16
	FillingsUpdate:  mu: -0.173600000  nElectrons: 331.036079
	SubspaceRotationAdjust: set factor to 0.0108
ElecMinimize: Iter:  21  G: -1745.371319313419235  |grad|_K:  1.129e-07  alpha:  4.640e-01  linmin:  3.788e-05  t[s]:  29443.02
	FillingsUpdate:  mu: -0.173600000  nElectrons: 331.036500
	SubspaceRotationAdjust: set factor to 0.00806
ElecMinimize: Iter:  22  G: -1745.371319488675681  |grad|_K:  8.899e-08  alpha:  2.918e-01  linmin: -1.641e-06  t[s]:  29835.80
	FillingsUpdate:  mu: -0.173600000  nElectrons: 331.036291
	SubspaceRotationAdjust: set factor to 0.00908
ElecMinimize: Iter:  23  G: -1745.371319652987950  |grad|_K:  7.019e-08  alpha:  4.404e-01  linmin: -2.523e-05  t[s]:  30225.80
ElecMinimize: Converged (|Delta G|<3.342244e-07 for 2 iters).
Setting wave functions to eigenvectors of Hamiltonian

Electronic minimization # 4 changed total free energy by -5.678911e-06 at t[s]:  30243.78

Fluid<-->Electron self-consistency loop converged to 1.000000e-05 hartrees after 4 minimization pairs at t[s]:  30243.78.

# Ionic positions in lattice coordinates:
ion O   0.500000000000000   0.309282071371639   0.278431996196527 1
ion C   0.500000000000000   0.489274329966054   0.250132351186439 1
ion H   0.500000000000000   0.678518766885664   0.268216167027815 1
ion Pt   0.000000000000000   0.000000000000000  -0.166700000000000 0
ion Pt   0.500000000000000   0.500000000000000  -0.166700000000000 0
ion Pt   0.000000000000000   0.500000000000000  -0.166700000000000 0
ion Pt   0.500000000000000   0.000000000000000  -0.166700000000000 0
ion Pt   0.750000000000000   0.250000000000000  -0.083300000000000 0
ion Pt   0.250000000000000   0.750000000000000  -0.083300000000000 0
ion Pt   0.250000000000000   0.250000000000000  -0.083300000000000 0
ion Pt   0.750000000000000   0.750000000000000  -0.083300000000000 0
ion Pt   0.500000000000000   0.000380331890701   0.000099661196990 1
ion Pt   0.000000000000000   0.000609994571978  -0.001653273289343 1
ion Pt   0.000000000000000   0.500329435343742   0.000415104050205 1
ion Pt   0.500000000000000   0.499953157705678   0.000402570761222 1
ion Pt   0.750844663086632   0.250000565521683   0.082924439887454 1
ion Pt   0.249128144452612   0.752405963482662   0.082550247333421 1
ion Pt   0.249155336913368   0.250000565521683   0.082924439887454 1
ion Pt   0.750871855547388   0.752405963482662   0.082550247333421 1
ion Pt   0.000000000000000   0.000127724029408   0.163910100890613 1
ion Pt   0.000000000000000   0.501112096347719   0.162227133205064 1
ion Pt   0.500000000000000   0.002269045524536   0.162371102614103 1
ion Pt   0.500000000000000   0.506058311899725   0.167160787818358 1


# Forces in Lattice coordinates:
force O   0.000000000000000  -0.045570997898787   0.235024822707164 1
force C   0.000000000000000   0.094329273317717  -0.055984646013829 1
force H   0.000000000000000  -0.064520076107483   0.015896201916503 1
force Pt   0.000000000000000   0.000369609398534   0.286641483537127 0
force Pt   0.000000000000000  -0.000570741150698   0.342337433282229 0
force Pt   0.000000000000000  -0.000016689788870   0.307499121966074 0
force Pt   0.000000000000000  -0.000325167123541   0.296740333302910 0
force Pt  -0.011424370092222   0.015378300368878  -0.327158603613713 0
force Pt   0.011179165626880  -0.012868380099849  -0.322584915168595 0
force Pt   0.011424370092222   0.015378300368878  -0.327158603613713 0
force Pt  -0.011179165626880  -0.012868380099849  -0.322584915168595 0
force Pt   0.000000000000000   0.002249443295823  -0.109635239790515 1
force Pt   0.000000000000000   0.004860403574477   0.043590250216024 1
force Pt   0.000000000000000   0.001473445332491  -0.132884814967535 1
force Pt   0.000000000000000   0.002587037014681  -0.110510633298992 1
force Pt  -0.015775735803278   0.021241648940215  -0.125586195978873 1
force Pt   0.017958885579617  -0.017171778424818  -0.102013404697696 1
force Pt   0.015775735803278   0.021241648940215  -0.125586195978873 1
force Pt  -0.017958885579617  -0.017171778424818  -0.102013404697696 1
force Pt   0.000000000000000   0.006718272261936  -0.000230731926823 1
force Pt   0.000000000000000   0.003671233315350   0.102949913850679 1
force Pt   0.000000000000000   0.006624428366220   0.062413637444766 1
force Pt   0.000000000000000  -0.031643033899053   0.272606659113622 1

# Energy components:
   A_diel =       -0.0081582693989865
   Eewald =    27022.6030744175513973
       EH =    28617.6621275034340215
     Eloc =   -57758.7844403492490528
      Enl =      -17.9964520054480346
      Exc =     -571.8974956204823457
 Exc_core =      324.9288165930967693
       KE =      580.8880850796901996
  MuShift =       -0.0012209574264439
-------------------------------------
     Etot =    -1802.6056636082378191
       TS =        0.2335561800447611
-------------------------------------
        F =    -1802.8392197882826622
      muN =      -57.4679001352946131
-------------------------------------
        G =    -1745.3713196529879497

IonicMinimize: Iter:   0  G: -1745.371319652987950  |grad|_K:  2.563e-03  t[s]:  30289.98
IonicMinimize: None of the convergence criteria satisfied after 0 iterations.

#--- Lowdin population analysis ---
# oxidation-state O -0.203
# oxidation-state C +0.279
# oxidation-state H +0.248
# oxidation-state Pt +0.022 +0.022 +0.022 +0.022 -0.008 -0.008 -0.008 -0.008 +0.013 +0.013 +0.013 +0.014 -0.018 -0.019 -0.018 -0.019 +0.017 +0.002 -0.010 -0.078


Dumping '100_2-Solvated.ionpos' ... done
Dumping '100_2-Solvated.n' ... done
Dumping '100_2-Solvated.eigStats' ... 
	eMin: -2.126189 at state 0 ( [ +0.000000 +0.000000 +0.000000 ] spin 0 )
	HOMO: -0.173774 at state 3 ( [ +0.250000 +0.000000 +0.000000 ] spin 0 )
	mu  : -0.173600
	LUMO: -0.173434 at state 1 ( [ +0.000000 +0.250000 +0.000000 ] spin 0 )
	eMax: +0.351849 at state 2 ( [ +0.000000 +0.500000 +0.000000 ] spin 0 )
	HOMO-LUMO gap: +0.000340
	Optical gap  : +0.000850 at state 1 ( [ +0.000000 +0.250000 +0.000000 ] spin 0 )
Dumping '100_2-Solvated.Ecomponents' ... done
End date and time: Fri Apr 26 06:33:17 2019  (Duration: 0-8:25:45.58)
Done!
