--------------------------------------------------------------------------
Initialization of PSM library failed.

  Error: PSM is in the finalized state
--------------------------------------------------------------------------
--------------------------------------------------------------------------
The OpenFabrics (openib) BTL failed to initialize while trying to
allocate some locked memory.  This typically can indicate that the
memlock limits are set too low.  For most HPC installations, the
memlock limits should be set to "unlimited".  The failure occured
here:

  Local host:    node2011
  OMPI source:   btl_openib.c:753
  Function:      ompi_free_list_init_ex_new()
  Device:        qib0
  Memlock limit: 65536

You may need to consult with your system administrator to get this
problem fixed.  This FAQ entry on the Open MPI web site may also be
helpful:

    http://www.open-mpi.org/faq/?category=openfabrics#ib-locked-pages
--------------------------------------------------------------------------

*************** JDFTx 1.4.2 (git hash 74b6e54) ***************

Start date and time: Sun Apr 28 22:15:06 2019
Executable /home/jfm343/JDFTXDIR/build/jdftx with command-line: -i Solvated.in
Running on hosts (process indices):  node2011.physics.cornell.edu (0)
Divided in process groups (process indices):  0 (0)
Resource initialization completed at t[s]:      0.00
Run totals: 1 processes, 12 threads, 0 GPUs


Input parsed successfully to the following command list (including defaults):

basis kpoint-dependent
coords-type Lattice
core-overlap-check vector
coulomb-interaction Slab 001
coulomb-truncation-embed 0 0 0
davidson-band-ratio 1.1
dump End IonicPositions ElecDensity EigStats Ecomponents
dump-name 100_5-Solvated.$VAR
elec-cutoff 20 100
elec-eigen-algo Davidson
elec-ex-corr gga-PBEsol
elec-smearing Fermi 0.01
electronic-minimize  \
	dirUpdateScheme      FletcherReeves \
	linminMethod         DirUpdateRecommended \
	nIterations          200 \
	history              15 \
	knormThreshold       0 \
	energyDiffThreshold  1e-08 \
	nEnergyDiff          2 \
	alphaTstart          1 \
	alphaTmin            1e-10 \
	updateTestStepSize   yes \
	alphaTreduceFactor   0.1 \
	alphaTincreaseFactor 3 \
	nAlphaAdjustMax      3 \
	wolfeEnergy          0.0001 \
	wolfeGradient        0.9 \
	fdTest               no
exchange-regularization WignerSeitzTruncated
fluid NonlinearPCM 298.000000 1.013250
fluid-anion ClO4- 0.2 MeanFieldLJ \
	epsBulk 1 \
	pMol 0 \
	epsInf 1 \
	Pvap 0 \
	sigmaBulk 0 \
	Rvdw 4.55424 \
	Res 0 \
	tauNuc 343133 \
	omegaEl 0.55124 \
	gammaEl 0.257245
fluid-cation Na+ 0.2 MeanFieldLJ \
	epsBulk 1 \
	pMol 0 \
	epsInf 1 \
	Pvap 0 \
	sigmaBulk 0 \
	Rvdw 2.19208 \
	Res 0 \
	tauNuc 343133 \
	omegaEl 0.55124 \
	gammaEl 0.257245
fluid-ex-corr lda-TF lda-PZ
fluid-gummel-loop 10 1.000000e-05
fluid-minimize  \
	dirUpdateScheme      PolakRibiere \
	linminMethod         DirUpdateRecommended \
	nIterations          100 \
	history              15 \
	knormThreshold       1e-11 \
	energyDiffThreshold  0 \
	nEnergyDiff          2 \
	alphaTstart          1 \
	alphaTmin            1e-10 \
	updateTestStepSize   yes \
	alphaTreduceFactor   0.1 \
	alphaTincreaseFactor 3 \
	nAlphaAdjustMax      6 \
	wolfeEnergy          0.0001 \
	wolfeGradient        0.9 \
	fdTest               no
fluid-solvent H2O 55.338 ScalarEOS \
	epsBulk 78.4 \
	pMol 0.92466 \
	epsInf 1.77 \
	Pvap 1.06736e-10 \
	sigmaBulk 4.62e-05 \
	Rvdw 2.61727 \
	Res 1.42 \
	tauNuc 343133 \
	omegaEl 0.55124 \
	gammaEl 0.257245
forces-output-coords Positions
initial-state 100_5-Vacuum.$VAR
ion C   0.500000000000000   0.500000000000000   0.311856165581352 1
ion O   0.711019098123181   0.500000000000000   0.312090548563179 1
ion O   0.288980901876819   0.500000000000000   0.312090548563179 1
ion Pt   0.000000000000000   0.000000000000000  -0.166700000000000 0
ion Pt   0.500000000000000   0.500000000000000  -0.166700000000000 0
ion Pt   0.000000000000000   0.500000000000000  -0.166700000000000 0
ion Pt   0.500000000000000   0.000000000000000  -0.166700000000000 0
ion Pt   0.750000000000000   0.250000000000000  -0.083300000000000 0
ion Pt   0.250000000000000   0.750000000000000  -0.083300000000000 0
ion Pt   0.250000000000000   0.250000000000000  -0.083300000000000 0
ion Pt   0.750000000000000   0.750000000000000  -0.083300000000000 0
ion Pt   0.500000000000000   0.000000000000000   0.000383996357253 1
ion Pt   0.000000000000000   0.000000000000000   0.000297083842357 1
ion Pt   0.000000000000000   0.500000000000000   0.000295650163874 1
ion Pt   0.500000000000000   0.500000000000000   0.000348151990705 1
ion Pt   0.750246496128444   0.250000351849783   0.083737423491423 1
ion Pt   0.249753503871556   0.749999648150217   0.083737423491423 1
ion Pt   0.249753503871556   0.250000351849783   0.083737423491423 1
ion Pt   0.750246496128444   0.749999648150217   0.083737423491423 1
ion Pt   0.000000000000000   0.000000000000000   0.164960721390440 1
ion Pt   0.000000000000000   0.500000000000000   0.165166758304645 1
ion Pt   0.500000000000000   0.000000000000000   0.164915855204329 1
ion Pt   0.500000000000000   0.500000000000000   0.164712850143932 1
ion-species GBRV/$ID_pbesol.uspp
ion-width Ecut
ionic-minimize  \
	dirUpdateScheme      L-BFGS \
	linminMethod         DirUpdateRecommended \
	nIterations          0 \
	history              15 \
	knormThreshold       0.0001 \
	energyDiffThreshold  1e-06 \
	nEnergyDiff          2 \
	alphaTstart          1 \
	alphaTmin            1e-10 \
	updateTestStepSize   yes \
	alphaTreduceFactor   0.1 \
	alphaTincreaseFactor 3 \
	nAlphaAdjustMax      3 \
	wolfeEnergy          0.0001 \
	wolfeGradient        0.9 \
	fdTest               no
kpoint   0.000000000000   0.000000000000   0.000000000000  1.00000000000000
kpoint-folding 4 4 1 
latt-move-scale 1 1 1
latt-scale 1 1 1 
lattice Tetragonal 10.4793 44.446
lattice-minimize  \
	dirUpdateScheme      L-BFGS \
	linminMethod         DirUpdateRecommended \
	nIterations          0 \
	history              15 \
	knormThreshold       0 \
	energyDiffThreshold  1e-06 \
	nEnergyDiff          2 \
	alphaTstart          1 \
	alphaTmin            1e-10 \
	updateTestStepSize   yes \
	alphaTreduceFactor   0.1 \
	alphaTincreaseFactor 3 \
	nAlphaAdjustMax      3 \
	wolfeEnergy          0.0001 \
	wolfeGradient        0.9 \
	fdTest               no
lcao-params -1 1e-06 0.01
pcm-variant GLSSA13
spintype no-spin
subspace-rotation-factor 1 yes
symmetries automatic
symmetry-threshold 0.0001
target-mu -0.1736 no




---------- Setting up symmetries ----------

Found 16 point-group symmetries of the bravais lattice
Found 4 space-group symmetries with basis
Applied RMS atom displacement 0 bohrs to make symmetries exact.

---------- Initializing the Grid ----------
R = 
[    10.4793          0          0  ]
[          0    10.4793          0  ]
[          0          0     44.446  ]
unit cell volume = 4880.87
G =
[   0.599581          0          0  ]
[          0   0.599581          0  ]
[          0          0   0.141367  ]
Minimum fftbox size, Smin = [  48  48  204  ]
Chosen fftbox size, S = [  48  48  210  ]

---------- Initializing tighter grid for wavefunction operations ----------
R = 
[    10.4793          0          0  ]
[          0    10.4793          0  ]
[          0          0     44.446  ]
unit cell volume = 4880.87
G =
[   0.599581          0          0  ]
[          0   0.599581          0  ]
[          0          0   0.141367  ]
Minimum fftbox size, Smin = [  44  44  180  ]
Chosen fftbox size, S = [  48  48  180  ]

---------- Exchange Correlation functional ----------
Initalized PBEsol GGA exchange.
Initalized PBEsol GGA correlation.

---------- Setting up pseudopotentials ----------
Width of ionic core gaussian charges (only for fluid interactions / plotting) set to 0.397384

Reading pseudopotential file '/home/jfm343/JDFTXDIR/build/pseudopotentials/GBRV/c_pbesol.uspp':
  Title: C.  Created by USPP 7.3.6 on 3-2-2014
  Reference state energy: -5.383511.  4 valence electrons in orbitals:
    |200>  occupation: 2  eigenvalue: -0.501126
    |210>  occupation: 2  eigenvalue: -0.192448
  lMax: 1  lLocal: 2  QijEcut: 5
  4 projectors sampled on a log grid with 503 points:
    l: 0  eig: -0.501126  rCut: 1.3
    l: 0  eig: 0.000000  rCut: 1.3
    l: 1  eig: -0.192448  rCut: 1.3
    l: 1  eig: 0.000000  rCut: 1.3
  Partial core density with radius 1.1
  Transforming core density to a uniform radial grid of dG=0.02 with 1265 points.
  Transforming local potential to a uniform radial grid of dG=0.02 with 1265 points.
  Transforming nonlocal projectors to a uniform radial grid of dG=0.02 with 432 points.
  Transforming density augmentations to a uniform radial grid of dG=0.02 with 1265 points.
  Transforming atomic orbitals to a uniform radial grid of dG=0.02 with 432 points.
  Core radius for overlap checks: 1.30 bohrs.

Reading pseudopotential file '/home/jfm343/JDFTXDIR/build/pseudopotentials/GBRV/o_pbesol.uspp':
  Title: O.  Created by USPP 7.3.6 on 3-2-2014
  Reference state energy: -15.849885.  6 valence electrons in orbitals:
    |200>  occupation: 2  eigenvalue: -0.873214
    |210>  occupation: 4  eigenvalue: -0.330058
  lMax: 2  lLocal: 2  QijEcut: 6
  5 projectors sampled on a log grid with 511 points:
    l: 0  eig: -0.873214  rCut: 1.25
    l: 0  eig: 0.000000  rCut: 1.25
    l: 1  eig: -0.330058  rCut: 1.25
    l: 1  eig: 0.000000  rCut: 1.25
    l: 2  eig: 1.000000  rCut: 1.25
  Partial core density with radius 0.7
  Transforming core density to a uniform radial grid of dG=0.02 with 1265 points.
  Transforming local potential to a uniform radial grid of dG=0.02 with 1265 points.
  Transforming nonlocal projectors to a uniform radial grid of dG=0.02 with 432 points.
  Transforming density augmentations to a uniform radial grid of dG=0.02 with 1265 points.
  Transforming atomic orbitals to a uniform radial grid of dG=0.02 with 432 points.
  Core radius for overlap checks: 1.25 bohrs.

Reading pseudopotential file '/home/jfm343/JDFTXDIR/build/pseudopotentials/GBRV/pt_pbesol.uspp':
  Title: Pt.  Created by USPP 7.3.6 on 22-9-15
  Reference state energy: -104.899005.  16 valence electrons in orbitals:
    |510>  occupation: 6  eigenvalue: -2.158847
    |520>  occupation: 9.5  eigenvalue: -0.336311
    |600>  occupation: 0  eigenvalue: -0.320324
    |610>  occupation: 0  eigenvalue: -0.119800
  lMax: 2  lLocal: 3  QijEcut: 5.5
  6 projectors sampled on a log grid with 745 points:
    l: 0  eig: -0.320324  rCut: 2.45
    l: 0  eig: 1.500000  rCut: 2.45
    l: 1  eig: -2.158847  rCut: 1.6
    l: 1  eig: -0.119800  rCut: 1.6
    l: 2  eig: -0.500000  rCut: 1.6
    l: 2  eig: -0.336311  rCut: 1.6
  Partial core density with radius 1.1
  Transforming core density to a uniform radial grid of dG=0.02 with 1265 points.
  Transforming local potential to a uniform radial grid of dG=0.02 with 1265 points.
  Transforming nonlocal projectors to a uniform radial grid of dG=0.02 with 432 points.
  Transforming density augmentations to a uniform radial grid of dG=0.02 with 1265 points.
  Transforming atomic orbitals to a uniform radial grid of dG=0.02 with 432 points.
  Core radius for overlap checks: 2.45 bohrs.

Initialized 3 species with 23 total atoms.

Folded 1 k-points by 4x4x1 to 16 k-points.

---------- Setting up k-points, bands, fillings ----------
Reduced to 9 k-points under symmetry. 
Computing the number of bands and number of electrons
Reading initial fillings from file 100_5-Vacuum.fillings.
nElectrons: 336.000000   nBands: 252   nStates: 9

----- Setting up reduced wavefunction bases (one per k-point) -----
average nbasis = 20861.812 , ideal nbasis = 20851.448

---------- Setting up coulomb interaction ----------
Fluid mode embedding: using embedded box, but periodic Coulomb kernel.
(Fluid response is responsible for (approximate) separation between periodic images.)
Setting up double-sized grid for truncated Coulomb potentials:
R = 
[    10.4793          0          0  ]
[          0    10.4793          0  ]
[          0          0     88.892  ]
unit cell volume = 9761.74
G =
[   0.599581          0          0  ]
[          0   0.599581          0  ]
[          0          0  0.0706834  ]
Chosen fftbox size, S = [  48  48  420  ]
Integer grid location selected as the embedding center:
   Grid: [  0  0  0  ]
   Lattice: [  0  0  0  ]
   Cartesian: [  0  0  0  ]
Constructing Wigner-Seitz cell: 6 faces (6 quadrilaterals, 0 hexagons)
Range-separation parameter for embedded mesh potentials due to point charges: 0.589462 bohrs.

---------- Setting up ewald sum ----------
Optimum gaussian width for ewald sums = 5.055893 bohr.
Real space sum over 845 unit cells with max indices [  6  6  2  ]
Reciprocal space sum over 6897 terms with max indices [  5  5  28  ]

---------- Allocating electronic variables ----------
Initializing wave functions:  reading from '100_5-Vacuum.wfns'
----- createFluidSolver() ----- (Fluid-side solver setup)
   Initializing fluid molecule 'H2O'
     Initializing site 'O'
       Electron density: proportional to exp(-r/0.36935)*erfc((r-0.51523)/0.36823) with norm 6.826
       Charge density: gaussian nuclear width 0.478731 with net site charge 0.826
       Polarizability: cuspless exponential with width 0.32 and norm 3.73
       Hard sphere radius: 2.57003 bohrs
       Positions in reference frame:
         [ +0.000000 +0.000000 +0.000000 ]
     Initializing site 'H'
       Electron density: proportional to exp(-r/0.34641)*erfc((r-0)/0.390882) with norm 0.587
       Charge density: gaussian nuclear width 0.377945 with net site charge -0.413
       Polarizability: cuspless exponential with width 0.39 and norm 3.3
       Positions in reference frame:
         [ +0.000000 -1.441945 +1.122523 ]
         [ +0.000000 +1.441945 +1.122523 ]
     Net charge: 0   dipole magnitude: 0.927204
     Initializing spherical shell mfKernel with radius 2.61727 Bohr
     deltaS corrections:
       site 'O': -7.54299
       site 'H': -6.83917
   Initializing fluid molecule 'Na+'
     Initializing site 'Na'
       Electron density: proportional to exp(-r/0.19682)*erfc((r-0.71491)/0.41314) with norm 8.1383
       Charge density: gaussian nuclear width 0.365347 with net site charge -1
       Hard sphere radius: 1.86327 bohrs
       Positions in reference frame:
         [ +0.000000 +0.000000 +0.000000 ]
     Net charge: -1   dipole magnitude: 0
     Initializing gaussian mfKernel with width: 1.55004 Bohr
     deltaS corrections:
       site 'Na': -22.3555
   Initializing fluid molecule 'ClO4-'
     Initializing site 'Cl'
       Electron density: proportional to exp(-r/0.48793)*erfc((r-0.93371)/0.45657) with norm 6.2308
       Charge density: gaussian nuclear width 0.55117 with net site charge -0.7692
       Hard sphere radius: 4.42196 bohrs
       Positions in reference frame:
         [ +0.000000 +0.000000 +0.000000 ]
     Initializing site 'O'
       Electron density: proportional to exp(-r/0.36013)*erfc((r-0.51636)/0.37371) with norm 6.4423
       Charge density: gaussian nuclear width 0.478731 with net site charge 0.4423
       Positions in reference frame:
         [ +1.705286 +1.705286 +1.705286 ]
         [ +1.705286 -1.705286 -1.705286 ]
         [ -1.705286 +1.705286 -1.705286 ]
         [ -1.705286 -1.705286 +1.705286 ]
     Net charge: 1   dipole magnitude: 0
     Initializing gaussian mfKernel with width: 3.22033 Bohr
     deltaS corrections:
       site 'Cl': -87.0374
       site 'O': 12.0842

Correction to mu due to finite nuclear width = -0.0341516
   Cavity determined by nc: 0.001 and sigma: 0.6
   Effective cavity tension: 9.5e-06 Eh/bohr^2 to account for cavitation and dispersion.
   Nonlinear dielectric with epsBulk = 78.4 and epsInf = 1.77 with density Nmol = 0.0049383 of dipoles pMol = 0.92466 at T = 298 K.
   Nonlinear ions with screening length = 12.843 bohrs and Z = 1 at T = 298 K.


---- Citations for features of the code used in this run ----

   Software package:
      R. Sundararaman, K. Letchworth-Weaver, K.A. Schwarz, D. Gunceler, Y. Ozhabes and T.A. Arias, 'JDFTx: software for joint density-functional theory', SoftwareX 6, 278 (2017)

   gga-PBEsol exchange-correlation functional:
      J.P. Perdew et al., Phys. Rev. Lett. 100, 136406 (2008)

   Pseudopotentials:
      KF Garrity, JW Bennett, KM Rabe and D Vanderbilt, Comput. Mater. Sci. 81, 446 (2014)

   Truncated Coulomb potentials:
      R. Sundararaman and T.A. Arias, Phys. Rev. B 87, 165122 (2013)

   Linear/nonlinear dielectric/ionic fluid model with effective cavity tension:
      D. Gunceler, K. Letchworth-Weaver, R. Sundararaman, K.A. Schwarz and T.A. Arias, Modelling Simul. Mater. Sci. Eng. 21, 074005 (2013)

   Total energy minimization with Auxiliary Hamiltonian:
      C. Freysoldt, S. Boeck, and J. Neugebauer, Phys. Rev. B 79, 241103(R) (2009)

   Grand-canonical (fixed-potential) DFT:
      R. Sundararaman, W. A. Goddard III and T. A. Arias, J. Chem. Phys. 146, 114104 (2017)

This list may not be complete. Please suggest additional citations or
report any other bugs at https://github.com/shankar1729/jdftx/issues

Initialization completed successfully at t[s]:     96.18

Shifting auxilliary hamiltonian by 0.035193 to set nElectrons=336.000000
Initializing state of NonlinearPCM using a similar LinearPCM: 	Linear fluid (dielectric constant: 78.4, screening length: 12.843 Bohr) occupying 0.712345 of unit cell:	Completed after 50 iterations at t[s]:    110.77

-------- Electron <-> Fluid self-consistency loop -----------

---------------------- Fluid Minimization # 1 -----------------------
FluidMinimize: Iter:   0  G: -0.001004068930114  |grad|_K:  2.980e-05  alpha:  1.000e+00
FluidMinimize: Iter:   1  G: -0.001022815203975  |grad|_K:  3.478e-05  alpha:  1.370e-02  linmin: -6.860e-02  cgtest:  5.076e-01  t[s]:    113.29
FluidMinimize: Iter:   2  G: -0.001072069206295  |grad|_K:  8.260e-05  alpha:  3.146e-02  linmin: -4.836e-04  cgtest: -3.893e-01  t[s]:    113.82
FluidMinimize: Iter:   3  G: -0.001225162399636  |grad|_K:  1.489e-04  alpha:  2.373e-02  linmin: -7.050e-03  cgtest:  9.679e-01  t[s]:    114.35
FluidMinimize: Iter:   4  G: -0.001338804136898  |grad|_K:  1.918e-05  alpha:  5.421e-03  linmin:  7.134e-03  cgtest: -3.883e-01  t[s]:    114.88
FluidMinimize: 	Predicted alpha/alphaT>3.000000, increasing alphaT to 1.626177e-02.
FluidMinimize: 	Predicted alpha/alphaT>3.000000, increasing alphaT to 4.878531e-02.
FluidMinimize: Iter:   5  G: -0.001376788933407  |grad|_K:  2.313e-05  alpha:  1.127e-01  linmin: -5.704e-03  cgtest:  1.184e-01  t[s]:    115.92
FluidMinimize: Iter:   6  G: -0.001398156568713  |grad|_K:  4.206e-05  alpha:  4.079e-02  linmin:  1.626e-03  cgtest: -6.164e-02  t[s]:    116.44
FluidMinimize: Iter:   7  G: -0.001417508249630  |grad|_K:  2.883e-05  alpha:  1.162e-02  linmin:  1.380e-03  cgtest:  5.949e-02  t[s]:    116.97
FluidMinimize: Iter:   8  G: -0.001428900360507  |grad|_K:  2.105e-05  alpha:  1.428e-02  linmin: -3.008e-04  cgtest: -1.717e-03  t[s]:    117.49
FluidMinimize: 	Predicted alpha/alphaT>3.000000, increasing alphaT to 4.283314e-02.
FluidMinimize: Iter:   9  G: -0.001459959491364  |grad|_K:  1.782e-05  alpha:  7.175e-02  linmin: -2.484e-03  cgtest: -4.477e-02  t[s]:    118.25
FluidMinimize: Iter:  10  G: -0.001474469351288  |grad|_K:  4.282e-05  alpha:  4.675e-02  linmin:  1.605e-05  cgtest: -1.455e-02  t[s]:    118.78
FluidMinimize: Iter:  11  G: -0.001500724931932  |grad|_K:  1.797e-05  alpha:  1.497e-02  linmin:  1.215e-03  cgtest: -2.876e-02  t[s]:    119.29
FluidMinimize: Iter:  12  G: -0.001512393161092  |grad|_K:  2.493e-05  alpha:  3.726e-02  linmin: -1.822e-03  cgtest:  1.173e-02  t[s]:    119.81
FluidMinimize: Iter:  13  G: -0.001530766486528  |grad|_K:  1.549e-05  alpha:  3.006e-02  linmin:  5.354e-05  cgtest: -1.168e-01  t[s]:    120.35
FluidMinimize: Iter:  14  G: -0.001548874817292  |grad|_K:  3.215e-05  alpha:  7.794e-02  linmin: -4.663e-04  cgtest:  3.122e-03  t[s]:    120.88
FluidMinimize: Iter:  15  G: -0.001556231497230  |grad|_K:  1.048e-05  alpha:  7.135e-03  linmin: -4.084e-03  cgtest:  5.828e-02  t[s]:    121.39
FluidMinimize: 	Predicted alpha/alphaT>3.000000, increasing alphaT to 2.140429e-02.
FluidMinimize: 	Predicted alpha/alphaT>3.000000, increasing alphaT to 6.421287e-02.
FluidMinimize: Iter:  16  G: -0.001576696883324  |grad|_K:  2.257e-05  alpha:  1.870e-01  linmin: -2.047e-03  cgtest: -2.731e-02  t[s]:    122.37
FluidMinimize: Iter:  17  G: -0.001585566599933  |grad|_K:  1.372e-05  alpha:  1.702e-02  linmin: -6.493e-03  cgtest:  7.609e-02  t[s]:    122.90
FluidMinimize: 	Predicted alpha/alphaT>3.000000, increasing alphaT to 5.106386e-02.
FluidMinimize: Iter:  18  G: -0.001596025588919  |grad|_K:  2.129e-05  alpha:  5.511e-02  linmin: -4.513e-04  cgtest: -4.926e-02  t[s]:    123.66
FluidMinimize: Iter:  19  G: -0.001599317991891  |grad|_K:  1.154e-05  alpha:  7.257e-03  linmin: -3.049e-03  cgtest:  7.330e-02  t[s]:    124.20
FluidMinimize: 	Predicted alpha/alphaT>3.000000, increasing alphaT to 2.176957e-02.
FluidMinimize: 	Predicted alpha/alphaT>3.000000, increasing alphaT to 6.530870e-02.
FluidMinimize: Iter:  20  G: -0.001610505358726  |grad|_K:  1.565e-05  alpha:  8.527e-02  linmin:  2.744e-03  cgtest: -9.518e-02  t[s]:    125.18
FluidMinimize: Iter:  21  G: -0.001615310258065  |grad|_K:  1.580e-05  alpha:  2.083e-02  linmin:  3.600e-04  cgtest:  3.842e-02  t[s]:    125.70
FluidMinimize: Iter:  22  G: -0.001619847835682  |grad|_K:  2.227e-05  alpha:  1.882e-02  linmin:  2.569e-04  cgtest: -4.634e-03  t[s]:    126.23
FluidMinimize: Converged (|Delta G|<1.000000e-05 for 2 iters).

Fluid minimization # 1 changed total free energy by -6.157789e-04 at t[s]:    126.54

-------------------- Electronic Minimization # 1 ---------------------
	FillingsUpdate:  mu: -0.173600000  nElectrons: 336.000000
ElecMinimize: Iter:   0  G: -1759.974049898095700  |grad|_K:  8.404e-05  alpha:  1.000e+00
ElecMinimize: 	Step increased G by 4.779609e-04, reducing alpha to 3.293990e-04.
	FillingsUpdate:  mu: -0.173600000  nElectrons: 336.007480
	SubspaceRotationAdjust: set factor to 0.501
ElecMinimize: Iter:   1  G: -1759.974244339743564  |grad|_K:  6.361e-05  alpha:  3.294e-04  linmin: -1.947e-01  t[s]:    931.88
	FillingsUpdate:  mu: -0.173600000  nElectrons: 336.030791
	SubspaceRotationAdjust: set factor to 0.337
ElecMinimize: Iter:   2  G: -1759.974505835104765  |grad|_K:  6.134e-06  alpha:  7.730e-04  linmin: -1.722e-04  t[s]:   1332.35
ElecMinimize: 	Predicted alpha/alphaT>3.000000, increasing alphaT to 2.319003e-03.
ElecMinimize: 	Predicted alpha/alphaT>3.000000, increasing alphaT to 6.957009e-03.
ElecMinimize: 	Predicted alpha/alphaT>3.000000, increasing alphaT to 2.087103e-02.
	FillingsUpdate:  mu: -0.173600000  nElectrons: 336.042771
	SubspaceRotationAdjust: set factor to 0.175
ElecMinimize: Iter:   3  G: -1759.974603550066831  |grad|_K:  1.454e-05  alpha:  5.442e-02  linmin: -5.644e-05  t[s]:   1926.02
	FillingsUpdate:  mu: -0.173600000  nElectrons: 336.036484
	SubspaceRotationAdjust: set factor to 0.119
	SubspaceRotationAdjust: resetting CG because factor has changed by 0.11919
ElecMinimize: 	State modified externally: resetting search direction.
ElecMinimize: Iter:   4  G: -1759.974674354933541  |grad|_K:  4.267e-06  alpha:  6.913e-03
ElecMinimize: 	Predicted alpha/alphaT>3.000000, increasing alphaT to 2.073869e-02.
ElecMinimize: 	Predicted alpha/alphaT>3.000000, increasing alphaT to 6.221608e-02.
	FillingsUpdate:  mu: -0.173600000  nElectrons: 336.040124
	SubspaceRotationAdjust: set factor to 0.0761
ElecMinimize: Iter:   5  G: -1759.974752478400660  |grad|_K:  4.415e-06  alpha:  9.016e-02  linmin: -1.537e-05  t[s]:   3070.42
	FillingsUpdate:  mu: -0.173600000  nElectrons: 336.033597
	SubspaceRotationAdjust: set factor to 0.0532
ElecMinimize: Iter:   6  G: -1759.974775168022234  |grad|_K:  3.602e-06  alpha:  2.444e-02  linmin: -2.199e-05  t[s]:   3467.74
ElecMinimize: 	Predicted alpha/alphaT>3.000000, increasing alphaT to 7.331173e-02.
ElecMinimize: 	Predicted alpha/alphaT>3.000000, increasing alphaT to 2.199352e-01.
	FillingsUpdate:  mu: -0.173600000  nElectrons: 336.030528
	SubspaceRotationAdjust: set factor to 0.0314
ElecMinimize: Iter:   7  G: -1759.974917925451791  |grad|_K:  3.375e-06  alpha:  2.311e-01  linmin:  3.937e-06  t[s]:   4061.76
	FillingsUpdate:  mu: -0.173600000  nElectrons: 336.036203
	SubspaceRotationAdjust: set factor to 0.0222
ElecMinimize: Iter:   8  G: -1759.974935498232298  |grad|_K:  1.701e-06  alpha:  3.246e-02  linmin:  2.083e-05  t[s]:   4463.00
ElecMinimize: 	Predicted alpha/alphaT>3.000000, increasing alphaT to 9.737199e-02.
	FillingsUpdate:  mu: -0.173600000  nElectrons: 336.041678
	SubspaceRotationAdjust: set factor to 0.0122
	SubspaceRotationAdjust: resetting CG because factor has changed by 0.102524
ElecMinimize: 	State modified externally: resetting search direction.
ElecMinimize: Iter:   9  G: -1759.974970846992846  |grad|_K:  1.859e-06  alpha:  2.570e-01
	FillingsUpdate:  mu: -0.173600000  nElectrons: 336.035637
	SubspaceRotationAdjust: set factor to 0.0146
ElecMinimize: Iter:  10  G: -1759.974991065070071  |grad|_K:  6.539e-07  alpha:  1.230e-01  linmin: -3.311e-05  t[s]:   5508.16
ElecMinimize: 	Predicted alpha/alphaT>3.000000, increasing alphaT to 3.689484e-01.
	FillingsUpdate:  mu: -0.173600000  nElectrons: 336.036686
	SubspaceRotationAdjust: set factor to 0.0141
ElecMinimize: Iter:  11  G: -1759.975001990309920  |grad|_K:  4.764e-07  alpha:  5.370e-01  linmin:  5.971e-06  t[s]:   6004.61
	FillingsUpdate:  mu: -0.173600000  nElectrons: 336.037206
	SubspaceRotationAdjust: set factor to 0.0175
ElecMinimize: Iter:  12  G: -1759.975011643436119  |grad|_K:  6.113e-07  alpha:  8.940e-01  linmin:  9.998e-07  t[s]:   6407.12
	FillingsUpdate:  mu: -0.173600000  nElectrons: 336.038619
	SubspaceRotationAdjust: set factor to 0.0192
ElecMinimize: Iter:  13  G: -1759.975034100675657  |grad|_K:  9.148e-07  alpha:  1.263e+00  linmin:  1.242e-06  t[s]:   6807.03
	FillingsUpdate:  mu: -0.173600000  nElectrons: 336.036768
	SubspaceRotationAdjust: set factor to 0.0151
ElecMinimize: Iter:  14  G: -1759.975065203444274  |grad|_K:  1.378e-06  alpha:  7.813e-01  linmin:  1.351e-06  t[s]:   7209.68
	FillingsUpdate:  mu: -0.173600000  nElectrons: 336.041755
	SubspaceRotationAdjust: set factor to 0.00979
ElecMinimize: Iter:  15  G: -1759.975078823148806  |grad|_K:  1.154e-06  alpha:  1.506e-01  linmin: -3.791e-06  t[s]:   7613.77
ElecMinimize: 	Predicted alpha/alphaT>3.000000, increasing alphaT to 4.519085e-01.
	FillingsUpdate:  mu: -0.173600000  nElectrons: 336.042453
	SubspaceRotationAdjust: set factor to 0.0143
ElecMinimize: Iter:  16  G: -1759.975114158979750  |grad|_K:  9.907e-07  alpha:  5.570e-01  linmin:  6.480e-08  t[s]:   8113.07
	FillingsUpdate:  mu: -0.173600000  nElectrons: 336.038705
	SubspaceRotationAdjust: set factor to 0.01
ElecMinimize: Iter:  17  G: -1759.975130067889722  |grad|_K:  1.132e-06  alpha:  3.407e-01  linmin: -2.256e-07  t[s]:   8511.78
	FillingsUpdate:  mu: -0.173600000  nElectrons: 336.042246
	SubspaceRotationAdjust: set factor to 0.00798
ElecMinimize: Iter:  18  G: -1759.975145269887889  |grad|_K:  6.232e-07  alpha:  2.493e-01  linmin: -1.381e-07  t[s]:   8913.10
	FillingsUpdate:  mu: -0.173600000  nElectrons: 336.041970
	SubspaceRotationAdjust: set factor to 0.0105
ElecMinimize: Iter:  19  G: -1759.975155867776266  |grad|_K:  4.838e-07  alpha:  5.731e-01  linmin: -4.831e-06  t[s]:   9314.31
	FillingsUpdate:  mu: -0.173600000  nElectrons: 336.040891
	SubspaceRotationAdjust: set factor to 0.0117
ElecMinimize: Iter:  20  G: -1759.975162432597699  |grad|_K:  5.234e-07  alpha:  5.892e-01  linmin: -1.381e-06  t[s]:   9714.06
	FillingsUpdate:  mu: -0.173600000  nElectrons: 336.042946
	SubspaceRotationAdjust: set factor to 0.0102
ElecMinimize: Iter:  21  G: -1759.975168368010372  |grad|_K:  6.047e-07  alpha:  4.553e-01  linmin:  6.193e-07  t[s]:  10113.99
ElecMinimize: Converged (|Delta G|<1.000000e-05 for 2 iters).
Setting wave functions to eigenvectors of Hamiltonian

Electronic minimization # 1 changed total free energy by -1.118470e-03 at t[s]:  10130.89

---------------------- Fluid Minimization # 2 -----------------------
FluidMinimize: Iter:   0  G: -0.010155907144305  |grad|_K:  1.868e-04  alpha:  1.000e+00
FluidMinimize: 	Step increased G by 1.387779e-17, reducing alpha to 1.330281e-27.
FluidMinimize: 	Step increased G by 1.387779e-17, reducing alpha to 1.330281e-28.
FluidMinimize: 	Step increased G by 1.387779e-17, reducing alpha to 1.330281e-29.
FluidMinimize: Iter:   1  G: -0.010155907144305  |grad|_K:  1.868e-04  alpha:  1.330e-29  linmin: -1.296e-01  cgtest:  1.000e+00  t[s]:  10132.54
FluidMinimize: 	Step increased G by 3.469447e-18, reducing alpha to 1.330281e-27.
FluidMinimize: Iter:   2  G: -0.010155907144305  |grad|_K:  1.868e-04  alpha:  1.330e-27  linmin: -1.296e-01  cgtest:  1.000e+00  t[s]:  10133.36
FluidMinimize: Encountered beta<0, resetting CG.
FluidMinimize: Iter:   3  G: -0.010155907144305  |grad|_K:  1.868e-04  alpha:  1.330e-26  linmin: -1.296e-01  cgtest:  1.000e+00  t[s]:  10133.92
FluidMinimize: 	Step increased G by 1.214306e-17, reducing alpha to 1.330281e-27.
FluidMinimize: 	Step increased G by 1.214306e-17, reducing alpha to 1.330281e-28.
FluidMinimize: 	Step increased G by 2.081668e-17, reducing alpha to 1.330281e-29.
FluidMinimize: 	Step increased G by 2.081668e-17, reducing alpha to 1.330281e-30.
FluidMinimize: 	Step increased G by 2.081668e-17, reducing alpha to 1.330281e-31.
FluidMinimize: 	Step increased G by 2.081668e-17, reducing alpha to 1.330281e-32.
FluidMinimize: 	Step failed to reduce G after 6 attempts. Quitting step.
FluidMinimize: 	Undoing step.
FluidMinimize: 	Step failed: resetting search direction.
FluidMinimize: Iter:   4  G: -0.010155907144305  |grad|_K:  1.868e-04  alpha:  1.330e-32
FluidMinimize: Iter:   5  G: -0.010155907144305  |grad|_K:  1.868e-04  alpha:  1.330e-26  linmin: -1.296e-01  cgtest:  1.000e+00  t[s]:  10136.64
FluidMinimize: Iter:   6  G: -0.010155907144305  |grad|_K:  1.868e-04  alpha:  1.330e-26  linmin: -1.296e-01  cgtest:  1.000e+00  t[s]:  10137.20
FluidMinimize: Converged (|Delta G|<1.000000e-05 for 2 iters).

Fluid minimization # 2 changed total free energy by 1.214306e-17 at t[s]:  10137.50

-------------------- Electronic Minimization # 2 ---------------------
	FillingsUpdate:  mu: -0.173600000  nElectrons: 334.975340
ElecMinimize: Iter:   0  G: -1759.453781184629406  |grad|_K:  2.938e-04  alpha:  1.000e+00
	FillingsUpdate:  mu: -0.173600000  nElectrons: 336.162664
	SubspaceRotationAdjust: set factor to 0.00386
ElecMinimize: Iter:   1  G: -1759.946556821778813  |grad|_K:  6.073e-05  alpha:  1.500e-01  linmin:  1.998e-01  t[s]:  10711.08
	FillingsUpdate:  mu: -0.173600000  nElectrons: 335.980366
	SubspaceRotationAdjust: set factor to 0.00148
ElecMinimize: Iter:   2  G: -1759.971107438877198  |grad|_K:  9.093e-06  alpha:  1.719e-01  linmin:  2.780e-03  t[s]:  11112.96
	FillingsUpdate:  mu: -0.173600000  nElectrons: 336.002264
	SubspaceRotationAdjust: set factor to 0.00273
ElecMinimize: Iter:   3  G: -1759.973085628532090  |grad|_K:  4.608e-06  alpha:  5.038e-01  linmin:  1.379e-04  t[s]:  11512.97
	FillingsUpdate:  mu: -0.173600000  nElectrons: 336.021240
	SubspaceRotationAdjust: set factor to 0.00353
ElecMinimize: Iter:   4  G: -1759.973639481836017  |grad|_K:  2.449e-06  alpha:  5.482e-01  linmin: -7.629e-05  t[s]:  11906.27
	FillingsUpdate:  mu: -0.173600000  nElectrons: 336.031207
	SubspaceRotationAdjust: set factor to 0.00336
ElecMinimize: Iter:   5  G: -1759.973802322331039  |grad|_K:  2.014e-06  alpha:  5.706e-01  linmin: -1.922e-05  t[s]:  12308.90
	FillingsUpdate:  mu: -0.173600000  nElectrons: 336.032549
	SubspaceRotationAdjust: set factor to 0.00421
ElecMinimize: Iter:   6  G: -1759.973992310731319  |grad|_K:  2.607e-06  alpha:  9.845e-01  linmin:  1.500e-05  t[s]:  12712.18
	FillingsUpdate:  mu: -0.173600000  nElectrons: 336.030959
	SubspaceRotationAdjust: set factor to 0.00453
ElecMinimize: Iter:   7  G: -1759.974316908856963  |grad|_K:  2.987e-06  alpha:  1.004e+00  linmin:  4.534e-05  t[s]:  13113.54
	FillingsUpdate:  mu: -0.173600000  nElectrons: 336.037749
	SubspaceRotationAdjust: set factor to 0.00472
ElecMinimize: Iter:   8  G: -1759.974670625277440  |grad|_K:  3.128e-06  alpha:  8.344e-01  linmin: -3.313e-05  t[s]:  13516.51
	FillingsUpdate:  mu: -0.173600000  nElectrons: 336.040827
	SubspaceRotationAdjust: set factor to 0.00509
ElecMinimize: Iter:   9  G: -1759.974965429327540  |grad|_K:  2.227e-06  alpha:  6.327e-01  linmin: -2.806e-06  t[s]:  13916.52
	FillingsUpdate:  mu: -0.173600000  nElectrons: 336.039861
	SubspaceRotationAdjust: set factor to 0.00577
ElecMinimize: Iter:  10  G: -1759.975082072694249  |grad|_K:  1.541e-06  alpha:  4.940e-01  linmin:  5.265e-06  t[s]:  14318.67
	FillingsUpdate:  mu: -0.173600000  nElectrons: 336.039529
	SubspaceRotationAdjust: set factor to 0.00701
ElecMinimize: Iter:  11  G: -1759.975134722918710  |grad|_K:  1.110e-06  alpha:  4.663e-01  linmin: -7.427e-08  t[s]:  14716.08
	FillingsUpdate:  mu: -0.173600000  nElectrons: 336.039496
	SubspaceRotationAdjust: set factor to 0.00884
ElecMinimize: Iter:  12  G: -1759.975164322604769  |grad|_K:  8.045e-07  alpha:  5.047e-01  linmin:  3.419e-06  t[s]:  15117.51
	FillingsUpdate:  mu: -0.173600000  nElectrons: 336.040433
	SubspaceRotationAdjust: set factor to 0.0106
ElecMinimize: Iter:  13  G: -1759.975181699669065  |grad|_K:  5.788e-07  alpha:  5.642e-01  linmin: -4.190e-06  t[s]:  15517.89
	FillingsUpdate:  mu: -0.173600000  nElectrons: 336.040528
	SubspaceRotationAdjust: set factor to 0.0117
ElecMinimize: Iter:  14  G: -1759.975190528689609  |grad|_K:  3.940e-07  alpha:  5.538e-01  linmin:  7.785e-06  t[s]:  15921.06
	FillingsUpdate:  mu: -0.173600000  nElectrons: 336.040854
	SubspaceRotationAdjust: set factor to 0.0129
ElecMinimize: Iter:  15  G: -1759.975194239768598  |grad|_K:  2.814e-07  alpha:  5.026e-01  linmin:  3.878e-06  t[s]:  16321.76
ElecMinimize: Converged (|Delta G|<1.000000e-05 for 2 iters).
Setting wave functions to eigenvectors of Hamiltonian

Electronic minimization # 2 changed total free energy by -2.587176e-05 at t[s]:  16339.45

---------------------- Fluid Minimization # 3 -----------------------
FluidMinimize: Iter:   0  G: -0.009863659632889  |grad|_K:  1.771e-04  alpha:  1.000e+00
FluidMinimize: Iter:   1  G: -0.009863659632889  |grad|_K:  1.771e-04  alpha:  2.282e-25  linmin: -1.292e-01  cgtest:  1.000e+00  t[s]:  16340.30
FluidMinimize: Encountered beta<0, resetting CG.
FluidMinimize: Iter:   2  G: -0.009863659632889  |grad|_K:  1.771e-04  alpha:  2.282e-25  linmin: -1.292e-01  cgtest:  1.000e+00  t[s]:  16340.88
FluidMinimize: Iter:   3  G: -0.009863659632889  |grad|_K:  1.771e-04  alpha:  2.282e-25  linmin: -1.292e-01  cgtest:  1.000e+00  t[s]:  16341.48
FluidMinimize: Iter:   4  G: -0.009863659632889  |grad|_K:  1.771e-04  alpha:  2.282e-25  linmin: -1.292e-01  cgtest:  1.000e+00  t[s]:  16342.04
FluidMinimize: Encountered beta<0, resetting CG.
FluidMinimize: Converged (|Delta G|<2.587176e-07 for 2 iters).

Fluid minimization # 3 changed total free energy by -1.734723e-18 at t[s]:  16342.34

-------------------- Electronic Minimization # 3 ---------------------
	FillingsUpdate:  mu: -0.173600000  nElectrons: 335.857106
ElecMinimize: Iter:   0  G: -1759.959872241073981  |grad|_K:  5.485e-05  alpha:  1.000e+00
	FillingsUpdate:  mu: -0.173600000  nElectrons: 336.033180
	SubspaceRotationAdjust: set factor to 0.00495
ElecMinimize: Iter:   1  G: -1759.974420934431919  |grad|_K:  5.361e-06  alpha:  1.056e-01  linmin:  6.020e-02  t[s]:  16914.16
	FillingsUpdate:  mu: -0.173600000  nElectrons: 336.023407
	SubspaceRotationAdjust: set factor to 0.00334
ElecMinimize: Iter:   2  G: -1759.974792873357501  |grad|_K:  2.507e-06  alpha:  2.822e-01  linmin:  2.412e-04  t[s]:  17313.85
	FillingsUpdate:  mu: -0.173600000  nElectrons: 336.038251
	SubspaceRotationAdjust: set factor to 0.00273
ElecMinimize: Iter:   3  G: -1759.974935223429156  |grad|_K:  1.045e-06  alpha:  4.762e-01  linmin: -2.945e-04  t[s]:  17716.47
	FillingsUpdate:  mu: -0.173600000  nElectrons: 336.039215
	SubspaceRotationAdjust: set factor to 0.0035
ElecMinimize: Iter:   4  G: -1759.974967920481049  |grad|_K:  8.424e-07  alpha:  6.290e-01  linmin:  7.004e-06  t[s]:  18116.61
	FillingsUpdate:  mu: -0.173600000  nElectrons: 336.036375
	SubspaceRotationAdjust: set factor to 0.00387
ElecMinimize: Iter:   5  G: -1759.974995990780371  |grad|_K:  8.645e-07  alpha:  8.314e-01  linmin:  2.228e-05  t[s]:  18516.75
	FillingsUpdate:  mu: -0.173600000  nElectrons: 336.036862
	SubspaceRotationAdjust: set factor to 0.00442
ElecMinimize: Iter:   6  G: -1759.975033859253472  |grad|_K:  1.194e-06  alpha:  1.065e+00  linmin:  2.386e-07  t[s]:  18916.59
	FillingsUpdate:  mu: -0.173600000  nElectrons: 336.041575
	SubspaceRotationAdjust: set factor to 0.0043
ElecMinimize: Iter:   7  G: -1759.975087668066180  |grad|_K:  1.200e-06  alpha:  7.932e-01  linmin: -1.718e-05  t[s]:  19316.27
	FillingsUpdate:  mu: -0.173600000  nElectrons: 336.039660
	SubspaceRotationAdjust: set factor to 0.00413
ElecMinimize: Iter:   8  G: -1759.975136991761019  |grad|_K:  9.522e-07  alpha:  7.192e-01  linmin:  3.898e-05  t[s]:  19719.32
	FillingsUpdate:  mu: -0.173600000  nElectrons: 336.040605
	SubspaceRotationAdjust: set factor to 0.00468
ElecMinimize: Iter:   9  G: -1759.975162139377289  |grad|_K:  6.360e-07  alpha:  5.833e-01  linmin: -4.807e-07  t[s]:  20123.17
	FillingsUpdate:  mu: -0.173600000  nElectrons: 336.041601
	SubspaceRotationAdjust: set factor to 0.00525
ElecMinimize: Iter:  10  G: -1759.975171654809628  |grad|_K:  4.520e-07  alpha:  4.944e-01  linmin: -1.036e-05  t[s]:  20527.26
	FillingsUpdate:  mu: -0.173600000  nElectrons: 336.041317
	SubspaceRotationAdjust: set factor to 0.00651
ElecMinimize: Iter:  11  G: -1759.975176448057709  |grad|_K:  3.526e-07  alpha:  4.929e-01  linmin: -4.687e-06  t[s]:  20929.40
	FillingsUpdate:  mu: -0.173600000  nElectrons: 336.041151
	SubspaceRotationAdjust: set factor to 0.0081
ElecMinimize: Iter:  12  G: -1759.975180090212461  |grad|_K:  3.183e-07  alpha:  6.151e-01  linmin: -2.974e-05  t[s]:  21334.73
	FillingsUpdate:  mu: -0.173600000  nElectrons: 336.041534
	SubspaceRotationAdjust: set factor to 0.00931
ElecMinimize: Iter:  13  G: -1759.975183390611392  |grad|_K:  3.202e-07  alpha:  6.842e-01  linmin: -1.120e-05  t[s]:  21738.90
	FillingsUpdate:  mu: -0.173600000  nElectrons: 336.040775
	SubspaceRotationAdjust: set factor to 0.00993
ElecMinimize: Iter:  14  G: -1759.975186563657644  |grad|_K:  3.437e-07  alpha:  6.500e-01  linmin: -4.067e-06  t[s]:  22137.95
	FillingsUpdate:  mu: -0.173600000  nElectrons: 336.042058
	SubspaceRotationAdjust: set factor to 0.00901
ElecMinimize: Iter:  15  G: -1759.975189382875215  |grad|_K:  3.678e-07  alpha:  5.018e-01  linmin: -2.973e-05  t[s]:  22538.05
	FillingsUpdate:  mu: -0.173600000  nElectrons: 336.040594
	SubspaceRotationAdjust: set factor to 0.00776
ElecMinimize: Iter:  16  G: -1759.975192335999054  |grad|_K:  3.491e-07  alpha:  4.583e-01  linmin:  8.578e-06  t[s]:  22939.70
	FillingsUpdate:  mu: -0.173600000  nElectrons: 336.041291
	SubspaceRotationAdjust: set factor to 0.00806
ElecMinimize: Iter:  17  G: -1759.975195834270153  |grad|_K:  3.061e-07  alpha:  6.035e-01  linmin: -1.082e-06  t[s]:  23339.27
	FillingsUpdate:  mu: -0.173600000  nElectrons: 336.041016
	SubspaceRotationAdjust: set factor to 0.009
ElecMinimize: Iter:  18  G: -1759.975198635817605  |grad|_K:  2.548e-07  alpha:  6.281e-01  linmin: -2.340e-06  t[s]:  23737.75
	FillingsUpdate:  mu: -0.173600000  nElectrons: 336.040835
	SubspaceRotationAdjust: set factor to 0.0101
ElecMinimize: Iter:  19  G: -1759.975200160153690  |grad|_K:  1.890e-07  alpha:  4.933e-01  linmin: -3.001e-05  t[s]:  24141.46
	FillingsUpdate:  mu: -0.173600000  nElectrons: 336.040960
	SubspaceRotationAdjust: set factor to 0.0107
ElecMinimize: Iter:  20  G: -1759.975200945828874  |grad|_K:  1.265e-07  alpha:  4.616e-01  linmin:  1.812e-05  t[s]:  24538.93
	FillingsUpdate:  mu: -0.173600000  nElectrons: 336.040614
	SubspaceRotationAdjust: set factor to 0.00919
ElecMinimize: Iter:  21  G: -1759.975201247742689  |grad|_K:  9.369e-08  alpha:  3.977e-01  linmin: -2.623e-05  t[s]:  24942.51
	FillingsUpdate:  mu: -0.173600000  nElectrons: 336.040912
	SubspaceRotationAdjust: set factor to 0.00648
ElecMinimize: Iter:  22  G: -1759.975201364485883  |grad|_K:  6.563e-08  alpha:  2.784e-01  linmin:  2.606e-05  t[s]:  25344.54
	FillingsUpdate:  mu: -0.173600000  nElectrons: 336.040752
	SubspaceRotationAdjust: set factor to 0.00771
ElecMinimize: Iter:  23  G: -1759.975201442553498  |grad|_K:  4.212e-08  alpha:  3.831e-01  linmin:  3.230e-04  t[s]:  25742.36
ElecMinimize: Converged (|Delta G|<2.587176e-07 for 2 iters).
Setting wave functions to eigenvectors of Hamiltonian

Electronic minimization # 3 changed total free energy by -7.202785e-06 at t[s]:  25760.09

Fluid<-->Electron self-consistency loop converged to 1.000000e-05 hartrees after 3 minimization pairs at t[s]:  25760.09.

# Ionic positions in lattice coordinates:
ion C   0.500000000000000   0.500000000000000   0.311856165581352 1
ion O   0.711019098123181   0.500000000000000   0.312090548563179 1
ion O   0.288980901876819   0.500000000000000   0.312090548563179 1
ion Pt   0.000000000000000   0.000000000000000  -0.166700000000000 0
ion Pt   0.500000000000000   0.500000000000000  -0.166700000000000 0
ion Pt   0.000000000000000   0.500000000000000  -0.166700000000000 0
ion Pt   0.500000000000000   0.000000000000000  -0.166700000000000 0
ion Pt   0.750000000000000   0.250000000000000  -0.083300000000000 0
ion Pt   0.250000000000000   0.750000000000000  -0.083300000000000 0
ion Pt   0.250000000000000   0.250000000000000  -0.083300000000000 0
ion Pt   0.750000000000000   0.750000000000000  -0.083300000000000 0
ion Pt   0.500000000000000   0.000000000000000   0.000383996357253 1
ion Pt   0.000000000000000   0.000000000000000   0.000297083842357 1
ion Pt   0.000000000000000   0.500000000000000   0.000295650163874 1
ion Pt   0.500000000000000   0.500000000000000   0.000348151990705 1
ion Pt   0.750246496128444   0.250000351849783   0.083737423491423 1
ion Pt   0.249753503871556   0.749999648150217   0.083737423491423 1
ion Pt   0.249753503871556   0.250000351849783   0.083737423491423 1
ion Pt   0.750246496128444   0.749999648150217   0.083737423491423 1
ion Pt   0.000000000000000   0.000000000000000   0.164960721390440 1
ion Pt   0.000000000000000   0.500000000000000   0.165166758304645 1
ion Pt   0.500000000000000   0.000000000000000   0.164915855204329 1
ion Pt   0.500000000000000   0.500000000000000   0.164712850143932 1


# Forces in Lattice coordinates:
force C   0.000000000000000   0.000000000000000   0.021508028042498 1
force O  -0.004814049865633   0.000000000000000  -0.001965913944810 1
force O   0.004814049865635   0.000000000000000  -0.001965913944810 1
force Pt   0.000000000000000   0.000000000000000   0.326533677267121 0
force Pt   0.000000000000000   0.000000000000000   0.330343687380104 0
force Pt   0.000000000000000   0.000000000000000   0.324315148162554 0
force Pt   0.000000000000000   0.000000000000000   0.327878664254104 0
force Pt  -0.000677435179786  -0.000220360260904  -0.251029430955221 0
force Pt   0.000677435179786   0.000220360260904  -0.251029430954312 0
force Pt   0.000677435179786  -0.000220360260904  -0.251029430955221 0
force Pt  -0.000677435179786   0.000220360260904  -0.251029430954312 0
force Pt   0.000000000000000   0.000000000000000  -0.057175886625780 1
force Pt   0.000000000000000   0.000000000000000  -0.054933744880172 1
force Pt   0.000000000000000   0.000000000000000  -0.053700962420515 1
force Pt   0.000000000000000   0.000000000000000  -0.051390980106845 1
force Pt  -0.000719138825919  -0.000782733265449  -0.013492173829493 1
force Pt   0.000719138825919   0.000782733265449  -0.013492173829493 1
force Pt   0.000719138825919  -0.000782733265448  -0.013492173829493 1
force Pt  -0.000719138825919   0.000782733265449  -0.013492173829493 1
force Pt   0.000000000000000   0.000000000000000   0.013280299782768 1
force Pt   0.000000000000000   0.000000000000000  -0.014406644113041 1
force Pt   0.000000000000000   0.000000000000000   0.017329688685007 1
force Pt   0.000000000000000   0.000000000000000  -0.008045940941946 1

# Energy components:
   A_diel =       -0.0098717210177663
   Eewald =    27052.1047259915758332
       EH =    28662.8813325456467282
     Eloc =   -57854.9822495414628065
      Enl =      -15.7344705323413123
      Exc =     -575.0203845942284033
 Exc_core =      324.9917139733985323
       KE =      587.6998142936338354
  MuShift =       -0.0013917493319910
-------------------------------------
     Etot =    -1818.0707813341298333
       TS =        0.2410946628665434
-------------------------------------
        F =    -1818.3118759969963776
      muN =      -58.3366745544428866
-------------------------------------
        G =    -1759.9752014425534981

IonicMinimize: Iter:   0  G: -1759.975201442553498  |grad|_K:  4.063e-04  t[s]:  25807.52
IonicMinimize: None of the convergence criteria satisfied after 0 iterations.

#--- Lowdin population analysis ---
# oxidation-state C +0.770
# oxidation-state O -0.252 -0.252
# oxidation-state Pt +0.024 +0.024 +0.024 +0.024 -0.009 -0.009 -0.009 -0.009 +0.011 +0.011 +0.011 +0.011 -0.010 -0.010 -0.010 -0.010 +0.030 +0.013 +0.026 -0.014


Dumping '100_5-Solvated.ionpos' ... done
Dumping '100_5-Solvated.n' ... done
Dumping '100_5-Solvated.eigStats' ... 
	eMin: -2.124877 at state 0 ( [ +0.000000 +0.000000 +0.000000 ] spin 0 )
	HOMO: -0.173923 at state 3 ( [ +0.250000 +0.000000 +0.000000 ] spin 0 )
	mu  : -0.173600
	LUMO: -0.173524 at state 3 ( [ +0.250000 +0.000000 +0.000000 ] spin 0 )
	eMax: +0.350719 at state 6 ( [ +0.500000 +0.000000 +0.000000 ] spin 0 )
	HOMO-LUMO gap: +0.000399
	Optical gap  : +0.000399 at state 3 ( [ +0.250000 +0.000000 +0.000000 ] spin 0 )
Dumping '100_5-Solvated.Ecomponents' ... done
End date and time: Mon Apr 29 05:26:11 2019  (Duration: 0-7:11:05.16)
Done!
