--------------------------------------------------------------------------
Initialization of PSM library failed.

  Error: PSM is in the finalized state
--------------------------------------------------------------------------
[node2016][[42964,1],0][btl_openib.c:880:mca_btl_openib_add_procs] could not prepare openib device for use
--------------------------------------------------------------------------
The OpenFabrics (openib) BTL failed to initialize while trying to
allocate some locked memory.  This typically can indicate that the
memlock limits are set too low.  For most HPC installations, the
memlock limits should be set to "unlimited".  The failure occured
here:

  Local host:    node2016
  OMPI source:   btl_openib.c:753
  Function:      ompi_free_list_init_ex_new()
  Device:        qib0
  Memlock limit: 65536

You may need to consult with your system administrator to get this
problem fixed.  This FAQ entry on the Open MPI web site may also be
helpful:

    http://www.open-mpi.org/faq/?category=openfabrics#ib-locked-pages
--------------------------------------------------------------------------

*************** JDFTx 1.4.2 (git hash 74b6e54) ***************

Start date and time: Fri May 24 07:07:01 2019
Executable /home/jfm343/JDFTXDIR/build/jdftx with command-line: -i Vacuum.in
Running on hosts (process indices):  node2016.physics.cornell.edu (0)
Divided in process groups (process indices):  0 (0)
Resource initialization completed at t[s]:      0.00
Run totals: 1 processes, 12 threads, 0 GPUs


Input parsed successfully to the following command list (including defaults):

basis kpoint-dependent
coords-type Lattice
core-overlap-check vector
coulomb-interaction Slab 001
coulomb-truncation-embed 0 0 0
davidson-band-ratio 1.1
dump End State IonicPositions ElecDensity EigStats Ecomponents
dump-name 100_4-Vacuum.$VAR
elec-cutoff 20 100
elec-eigen-algo Davidson
elec-ex-corr gga-PBEsol
elec-smearing Fermi 0.01
electronic-minimize  \
	dirUpdateScheme      FletcherReeves \
	linminMethod         DirUpdateRecommended \
	nIterations          200 \
	history              15 \
	knormThreshold       0 \
	energyDiffThreshold  1e-08 \
	nEnergyDiff          2 \
	alphaTstart          1 \
	alphaTmin            1e-10 \
	updateTestStepSize   yes \
	alphaTreduceFactor   0.1 \
	alphaTincreaseFactor 3 \
	nAlphaAdjustMax      3 \
	wolfeEnergy          0.0001 \
	wolfeGradient        0.9 \
	fdTest               no
exchange-regularization WignerSeitzTruncated
fluid None
fluid-ex-corr lda-TF lda-PZ
fluid-gummel-loop 10 1.000000e-05
fluid-minimize  \
	dirUpdateScheme      PolakRibiere \
	linminMethod         DirUpdateRecommended \
	nIterations          100 \
	history              15 \
	knormThreshold       0 \
	energyDiffThreshold  0 \
	nEnergyDiff          2 \
	alphaTstart          1 \
	alphaTmin            1e-10 \
	updateTestStepSize   yes \
	alphaTreduceFactor   0.1 \
	alphaTincreaseFactor 3 \
	nAlphaAdjustMax      3 \
	wolfeEnergy          0.0001 \
	wolfeGradient        0.9 \
	fdTest               no
fluid-solvent H2O 55.338 ScalarEOS \
	epsBulk 78.4 \
	pMol 0.92466 \
	epsInf 1.77 \
	Pvap 1.06736e-10 \
	sigmaBulk 4.62e-05 \
	Rvdw 2.61727 \
	Res 1.42 \
	tauNuc 343133 \
	omegaEl 0.55124 \
	gammaEl 0.257245
forces-output-coords Positions
ion H   0.636540000000000   0.720090000000000   0.334610000000000 1
ion H   0.296850000000000   0.459720000000000   0.334620000000000 1
ion C   0.551550000000000   0.555130000000000   0.334610000000000 1
ion O   0.596130000000000   0.342640000000000   0.334610000000000 1
ion O   0.369350000000000   0.604650000000000   0.334620000000000 1
ion Pt   0.000000000000000   0.000000000000000  -0.166660000000000 0
ion Pt   0.000000000000000   0.500000000000000  -0.166660000000000 0
ion Pt   0.500000000000000   0.000000000000000  -0.166660000000000 0
ion Pt   0.500000000000000   0.500000000000000  -0.166660000000000 0
ion Pt   0.250000000000000   0.250000000000000  -0.083330000000000 0
ion Pt   0.250000000000000   0.750000000000000  -0.083330000000000 0
ion Pt   0.750000000000000   0.250000000000000  -0.083330000000000 0
ion Pt   0.750000000000000   0.750000000000000  -0.083330000000000 0
ion Pt   0.000000000000000   0.000000000000000   0.000000000000000 1
ion Pt   0.000000000000000   0.500000000000000   0.000000000000000 1
ion Pt   0.500000000000000   0.000000000000000   0.000000000000000 1
ion Pt   0.500000000000000   0.500000000000000   0.000000000000000 1
ion Pt   0.250000000000000   0.250000000000000   0.083330000000000 1
ion Pt   0.250000000000000   0.750000000000000   0.083330000000000 1
ion Pt   0.750000000000000   0.250000000000000   0.083330000000000 1
ion Pt   0.750000000000000   0.750000000000000   0.083330000000000 1
ion Pt   0.000000000000000   0.000000000000000   0.166660000000000 1
ion Pt   0.000000000000000   0.500000000000000   0.166660000000000 1
ion Pt   0.500000000000000   0.000000000000000   0.166660000000000 1
ion Pt   0.500000000000000   0.500000000000000   0.166660000000000 1
ion-species GBRV/$ID_pbesol.uspp
ion-width 0
ionic-minimize  \
	dirUpdateScheme      L-BFGS \
	linminMethod         DirUpdateRecommended \
	nIterations          8 \
	history              15 \
	knormThreshold       0.0001 \
	energyDiffThreshold  1e-06 \
	nEnergyDiff          2 \
	alphaTstart          1 \
	alphaTmin            1e-10 \
	updateTestStepSize   yes \
	alphaTreduceFactor   0.1 \
	alphaTincreaseFactor 3 \
	nAlphaAdjustMax      3 \
	wolfeEnergy          0.0001 \
	wolfeGradient        0.9 \
	fdTest               no
kpoint   0.000000000000   0.000000000000   0.000000000000  1.00000000000000
kpoint-folding 4 4 1 
latt-move-scale 1 1 1
latt-scale 1 1 1 
lattice Triclinic 13.6552 10.3852 31.1556 90 90 90
lattice-minimize  \
	dirUpdateScheme      L-BFGS \
	linminMethod         DirUpdateRecommended \
	nIterations          0 \
	history              15 \
	knormThreshold       0 \
	energyDiffThreshold  1e-06 \
	nEnergyDiff          2 \
	alphaTstart          1 \
	alphaTmin            1e-10 \
	updateTestStepSize   yes \
	alphaTreduceFactor   0.1 \
	alphaTincreaseFactor 3 \
	nAlphaAdjustMax      3 \
	wolfeEnergy          0.0001 \
	wolfeGradient        0.9 \
	fdTest               no
lcao-params -1 1e-06 0.01
pcm-variant GLSSA13
spintype no-spin
subspace-rotation-factor 1 yes
symmetries automatic
symmetry-threshold 0.0001



---------- Setting up symmetries ----------

Found 8 point-group symmetries of the bravais lattice
Found 1 space-group symmetries with basis
Applied RMS atom displacement 0 bohrs to make symmetries exact.

---------- Initializing the Grid ----------
R = 
[    13.6552          0          0  ]
[          0    10.3852          0  ]
[          0          0    31.1556  ]
unit cell volume = 4418.23
G =
[   0.460132          0          0  ]
[          0   0.605013          0  ]
[          0          0   0.201671  ]
Minimum fftbox size, Smin = [  64  48  144  ]
Chosen fftbox size, S = [  64  48  144  ]

---------- Initializing tighter grid for wavefunction operations ----------
R = 
[    13.6552          0          0  ]
[          0    10.3852          0  ]
[          0          0    31.1556  ]
unit cell volume = 4418.23
G =
[   0.460132          0          0  ]
[          0   0.605013          0  ]
[          0          0   0.201671  ]
Minimum fftbox size, Smin = [  56  44  128  ]
Chosen fftbox size, S = [  56  48  128  ]

---------- Exchange Correlation functional ----------
Initalized PBEsol GGA exchange.
Initalized PBEsol GGA correlation.

---------- Setting up pseudopotentials ----------
Width of ionic core gaussian charges (only for fluid interactions / plotting) set to 0

Reading pseudopotential file '/home/jfm343/JDFTXDIR/build/pseudopotentials/GBRV/h_pbesol.uspp':
  Title: H.  Created by USPP 7.3.6 on 22-9-15
  Reference state energy: -0.449841.  1 valence electrons in orbitals:
    |100>  occupation: 1  eigenvalue: -0.232690
  lMax: 0  lLocal: 1  QijEcut: 6
  2 projectors sampled on a log grid with 395 points:
    l: 0  eig: -0.232690  rCut: 1.2
    l: 0  eig: 1.000000  rCut: 1.2
  Transforming local potential to a uniform radial grid of dG=0.02 with 1269 points.
  Transforming nonlocal projectors to a uniform radial grid of dG=0.02 with 432 points.
  Transforming density augmentations to a uniform radial grid of dG=0.02 with 1269 points.
  Transforming atomic orbitals to a uniform radial grid of dG=0.02 with 432 points.
  Core radius for overlap checks: 1.20 bohrs.

Reading pseudopotential file '/home/jfm343/JDFTXDIR/build/pseudopotentials/GBRV/c_pbesol.uspp':
  Title: C.  Created by USPP 7.3.6 on 3-2-2014
  Reference state energy: -5.383511.  4 valence electrons in orbitals:
    |200>  occupation: 2  eigenvalue: -0.501126
    |210>  occupation: 2  eigenvalue: -0.192448
  lMax: 1  lLocal: 2  QijEcut: 5
  4 projectors sampled on a log grid with 503 points:
    l: 0  eig: -0.501126  rCut: 1.3
    l: 0  eig: 0.000000  rCut: 1.3
    l: 1  eig: -0.192448  rCut: 1.3
    l: 1  eig: 0.000000  rCut: 1.3
  Partial core density with radius 1.1
  Transforming core density to a uniform radial grid of dG=0.02 with 1269 points.
  Transforming local potential to a uniform radial grid of dG=0.02 with 1269 points.
  Transforming nonlocal projectors to a uniform radial grid of dG=0.02 with 432 points.
  Transforming density augmentations to a uniform radial grid of dG=0.02 with 1269 points.
  Transforming atomic orbitals to a uniform radial grid of dG=0.02 with 432 points.
  Core radius for overlap checks: 1.30 bohrs.

Reading pseudopotential file '/home/jfm343/JDFTXDIR/build/pseudopotentials/GBRV/o_pbesol.uspp':
  Title: O.  Created by USPP 7.3.6 on 3-2-2014
  Reference state energy: -15.849885.  6 valence electrons in orbitals:
    |200>  occupation: 2  eigenvalue: -0.873214
    |210>  occupation: 4  eigenvalue: -0.330058
  lMax: 2  lLocal: 2  QijEcut: 6
  5 projectors sampled on a log grid with 511 points:
    l: 0  eig: -0.873214  rCut: 1.25
    l: 0  eig: 0.000000  rCut: 1.25
    l: 1  eig: -0.330058  rCut: 1.25
    l: 1  eig: 0.000000  rCut: 1.25
    l: 2  eig: 1.000000  rCut: 1.25
  Partial core density with radius 0.7
  Transforming core density to a uniform radial grid of dG=0.02 with 1269 points.
  Transforming local potential to a uniform radial grid of dG=0.02 with 1269 points.
  Transforming nonlocal projectors to a uniform radial grid of dG=0.02 with 432 points.
  Transforming density augmentations to a uniform radial grid of dG=0.02 with 1269 points.
  Transforming atomic orbitals to a uniform radial grid of dG=0.02 with 432 points.
  Core radius for overlap checks: 1.25 bohrs.

Reading pseudopotential file '/home/jfm343/JDFTXDIR/build/pseudopotentials/GBRV/pt_pbesol.uspp':
  Title: Pt.  Created by USPP 7.3.6 on 22-9-15
  Reference state energy: -104.899005.  16 valence electrons in orbitals:
    |510>  occupation: 6  eigenvalue: -2.158847
    |520>  occupation: 9.5  eigenvalue: -0.336311
    |600>  occupation: 0  eigenvalue: -0.320324
    |610>  occupation: 0  eigenvalue: -0.119800
  lMax: 2  lLocal: 3  QijEcut: 5.5
  6 projectors sampled on a log grid with 745 points:
    l: 0  eig: -0.320324  rCut: 2.45
    l: 0  eig: 1.500000  rCut: 2.45
    l: 1  eig: -2.158847  rCut: 1.6
    l: 1  eig: -0.119800  rCut: 1.6
    l: 2  eig: -0.500000  rCut: 1.6
    l: 2  eig: -0.336311  rCut: 1.6
  Partial core density with radius 1.1
  Transforming core density to a uniform radial grid of dG=0.02 with 1269 points.
  Transforming local potential to a uniform radial grid of dG=0.02 with 1269 points.
  Transforming nonlocal projectors to a uniform radial grid of dG=0.02 with 432 points.
  Transforming density augmentations to a uniform radial grid of dG=0.02 with 1269 points.
  Transforming atomic orbitals to a uniform radial grid of dG=0.02 with 432 points.
  Core radius for overlap checks: 2.45 bohrs.

Initialized 4 species with 25 total atoms.

Folded 1 k-points by 4x4x1 to 16 k-points.

---------- Setting up k-points, bands, fillings ----------
Adding inversion symmetry to k-mesh for non-inversion-symmetric unit cell.
Reduced to 10 k-points under symmetry. 
Computing the number of bands and number of electrons
Calculating initial fillings.
nElectrons: 338.000000   nBands: 254   nStates: 10

----- Setting up reduced wavefunction bases (one per k-point) -----
average nbasis = 18876.562 , ideal nbasis = 18875.034

---------- Setting up coulomb interaction ----------
Setting up double-sized grid for truncated Coulomb potentials:
R = 
[    13.6552          0          0  ]
[          0    10.3852          0  ]
[          0          0    62.3112  ]
unit cell volume = 8836.47
G =
[   0.460132          0          0  ]
[          0   0.605013          0  ]
[          0          0   0.100836  ]
Chosen fftbox size, S = [  64  48  288  ]
Integer grid location selected as the embedding center:
   Grid: [  0  0  0  ]
   Lattice: [  0  0  0  ]
   Cartesian: [  0  0  0  ]
Constructing Wigner-Seitz cell: 6 faces (6 quadrilaterals, 0 hexagons)
Range-separation parameter for embedded mesh potentials due to point charges: 0.586809 bohrs.
Initialized slab truncation along lattice direction 001

---------- Setting up 2D ewald sum ----------
Optimum gaussian width for ewald sums = 7.104097 bohr.
Real space sums over 221 unit cells with max indices [  6  8  0  ]
Reciprocal space sums over 81 terms with max indices [  4  4  0  ]

---------- Allocating electronic variables ----------
Initializing wave functions:  linear combination of atomic orbitals
H pseudo-atom occupations:   s ( 1 )
C pseudo-atom occupations:   s ( 2 )  p ( 2 )
O pseudo-atom occupations:   s ( 2 )  p ( 4 )
Pt pseudo-atom occupations:   s ( 0 )  p ( 6 0 )  d ( 10 )
	FillingsUpdate:  mu: -2.136629773  nElectrons: 338.000000
LCAOMinimize: Iter:   0  F: -1804.4998121250353051  |grad|_K:  2.774e-02  alpha:  1.000e+00
LCAOMinimize: 	Step increased F by 2.360615e+02, reducing alpha to 1.830519e-02.
	FillingsUpdate:  mu: -1.512333687  nElectrons: 338.000000
LCAOMinimize: Iter:   1  F: -1810.6975851288557351  |grad|_K:  1.731e-02  alpha:  1.831e-02  linmin: -1.379e-01  cgtest:  5.452e-01  t[s]:    416.61
	FillingsUpdate:  mu: -0.301215671  nElectrons: 338.000000
LCAOMinimize: Iter:   2  F: -1815.4088752585373641  |grad|_K:  2.287e-02  alpha:  4.838e-02  linmin:  3.533e-02  cgtest: -2.724e-01  t[s]:    516.41
	FillingsUpdate:  mu: +0.156936417  nElectrons: 338.000000
LCAOMinimize: Iter:   3  F: -1815.7547290781983520  |grad|_K:  1.840e-02  alpha:  1.131e-02  linmin:  3.795e-02  cgtest:  8.923e-01  t[s]:    618.06
LCAOMinimize: Encountered beta<0, resetting CG.
	FillingsUpdate:  mu: -0.070945098  nElectrons: 338.000000
LCAOMinimize: Iter:   4  F: -1816.9328595711556318  |grad|_K:  7.612e-03  alpha:  1.073e-02  linmin: -1.312e-02  cgtest:  4.994e-02  t[s]:    718.91
LCAOMinimize: 	Predicted alpha/alphaT>3.000000, increasing alphaT to 3.217952e-02.
	FillingsUpdate:  mu: -0.443154602  nElectrons: 338.000000
LCAOMinimize: Iter:   5  F: -1817.9609576272021059  |grad|_K:  2.686e-03  alpha:  5.466e-02  linmin:  2.123e-02  cgtest: -1.415e-01  t[s]:    846.81
	FillingsUpdate:  mu: -0.288214517  nElectrons: 338.000000
LCAOMinimize: Iter:   6  F: -1818.1693385742528335  |grad|_K:  5.154e-03  alpha:  8.977e-02  linmin: -5.564e-03  cgtest:  7.080e-02  t[s]:    946.85
	FillingsUpdate:  mu: -0.234482161  nElectrons: 338.000000
LCAOMinimize: Iter:   7  F: -1818.4632501942255658  |grad|_K:  1.736e-03  alpha:  3.147e-02  linmin: -3.443e-02  cgtest: -3.239e-01  t[s]:   1048.44
	FillingsUpdate:  mu: -0.159029467  nElectrons: 338.000000
LCAOMinimize: Iter:   8  F: -1818.5227676604226872  |grad|_K:  1.750e-03  alpha:  5.150e-02  linmin:  5.374e-03  cgtest: -2.589e-01  t[s]:   1149.32
	FillingsUpdate:  mu: -0.132029603  nElectrons: 338.000000
LCAOMinimize: Iter:   9  F: -1818.5448526107240923  |grad|_K:  9.846e-04  alpha:  2.353e-02  linmin: -4.568e-04  cgtest:  4.577e-01  t[s]:   1249.81
LCAOMinimize: 	Predicted alpha/alphaT>3.000000, increasing alphaT to 7.058601e-02.
	FillingsUpdate:  mu: -0.167500778  nElectrons: 338.000000
LCAOMinimize: Iter:  10  F: -1818.5753797130469138  |grad|_K:  1.438e-03  alpha:  9.508e-02  linmin: -6.357e-03  cgtest:  4.530e-02  t[s]:   1377.38
	FillingsUpdate:  mu: -0.206951187  nElectrons: 338.000000
LCAOMinimize: Iter:  11  F: -1818.5905874089526151  |grad|_K:  7.487e-04  alpha:  2.225e-02  linmin:  7.208e-03  cgtest: -2.497e-01  t[s]:   1475.49
LCAOMinimize: 	Predicted alpha/alphaT>3.000000, increasing alphaT to 6.674537e-02.
	FillingsUpdate:  mu: -0.228168324  nElectrons: 338.000000
LCAOMinimize: Iter:  12  F: -1818.6117013434763976  |grad|_K:  5.014e-04  alpha:  1.208e-01  linmin:  1.283e-04  cgtest:  5.903e-01  t[s]:   1603.82
	FillingsUpdate:  mu: -0.224608339  nElectrons: 338.000000
LCAOMinimize: Iter:  13  F: -1818.6141725767579373  |grad|_K:  5.394e-04  alpha:  2.932e-02  linmin: -6.586e-03  cgtest:  2.769e-02  t[s]:   1702.73
	FillingsUpdate:  mu: -0.214909684  nElectrons: 338.000000
LCAOMinimize: Iter:  14  F: -1818.6195590398401691  |grad|_K:  1.714e-04  alpha:  5.461e-02  linmin: -2.720e-02  cgtest: -4.664e-02  t[s]:   1801.74
	FillingsUpdate:  mu: -0.221556330  nElectrons: 338.000000
LCAOMinimize: Iter:  15  F: -1818.6204614168650551  |grad|_K:  1.470e-04  alpha:  9.078e-02  linmin:  5.609e-04  cgtest: -5.348e-02  t[s]:   1902.65
	FillingsUpdate:  mu: -0.222224043  nElectrons: 338.000000
LCAOMinimize: Iter:  16  F: -1818.6206243637054740  |grad|_K:  1.298e-04  alpha:  2.331e-02  linmin:  5.462e-04  cgtest:  1.245e-02  t[s]:   2004.23
LCAOMinimize: 	Predicted alpha/alphaT>3.000000, increasing alphaT to 6.994120e-02.
	FillingsUpdate:  mu: -0.218982092  nElectrons: 338.000000
LCAOMinimize: Iter:  17  F: -1818.6214588043280855  |grad|_K:  6.077e-05  alpha:  1.528e-01  linmin:  2.162e-05  cgtest:  1.653e-02  t[s]:   2130.95
	FillingsUpdate:  mu: -0.218915675  nElectrons: 338.000000
LCAOMinimize: Iter:  18  F: -1818.6216244918452958  |grad|_K:  9.840e-05  alpha:  1.380e-01  linmin:  4.134e-05  cgtest:  4.888e-04  t[s]:   2232.52
	FillingsUpdate:  mu: -0.219284067  nElectrons: 338.000000
LCAOMinimize: Iter:  19  F: -1818.6216771920167048  |grad|_K:  2.793e-05  alpha:  1.676e-02  linmin:  3.669e-04  cgtest: -6.204e-03  t[s]:   2332.70
LCAOMinimize: 	Predicted alpha/alphaT>3.000000, increasing alphaT to 5.029002e-02.
	FillingsUpdate:  mu: -0.220652699  nElectrons: 338.000000
LCAOMinimize: Iter:  20  F: -1818.6217006919073356  |grad|_K:  1.593e-05  alpha:  9.271e-02  linmin: -4.951e-05  cgtest:  7.156e-04  t[s]:   2458.37
	FillingsUpdate:  mu: -0.220328194  nElectrons: 338.000000
LCAOMinimize: Iter:  21  F: -1818.6217091217970392  |grad|_K:  2.546e-05  alpha:  1.021e-01  linmin: -3.719e-05  cgtest: -1.109e-04  t[s]:   2557.56
	FillingsUpdate:  mu: -0.220140901  nElectrons: 338.000000
LCAOMinimize: Iter:  22  F: -1818.6217130290337991  |grad|_K:  6.159e-06  alpha:  1.847e-02  linmin: -1.334e-03  cgtest:  1.014e-02  t[s]:   2660.35
LCAOMinimize: 	Predicted alpha/alphaT>3.000000, increasing alphaT to 5.541423e-02.
	FillingsUpdate:  mu: -0.220206448  nElectrons: 338.000000
LCAOMinimize: Iter:  23  F: -1818.6217146681501617  |grad|_K:  4.696e-06  alpha:  1.324e-01  linmin: -2.876e-04  cgtest: -2.994e-03  t[s]:   2785.74
	FillingsUpdate:  mu: -0.220232951  nElectrons: 338.000000
LCAOMinimize: Iter:  24  F: -1818.6217153435154614  |grad|_K:  9.403e-06  alpha:  9.399e-02  linmin: -4.201e-06  cgtest: -3.239e-04  t[s]:   2889.98
	FillingsUpdate:  mu: -0.220263096  nElectrons: 338.000000
LCAOMinimize: Iter:  25  F: -1818.6217161872161796  |grad|_K:  3.032e-06  alpha:  2.933e-02  linmin: -5.171e-05  cgtest:  6.707e-03  t[s]:   2990.69
LCAOMinimize: Converged (|Delta F|<1.000000e-06 for 2 iters).


---- Citations for features of the code used in this run ----

   Software package:
      R. Sundararaman, K. Letchworth-Weaver, K.A. Schwarz, D. Gunceler, Y. Ozhabes and T.A. Arias, 'JDFTx: software for joint density-functional theory', SoftwareX 6, 278 (2017)

   gga-PBEsol exchange-correlation functional:
      J.P. Perdew et al., Phys. Rev. Lett. 100, 136406 (2008)

   Pseudopotentials:
      KF Garrity, JW Bennett, KM Rabe and D Vanderbilt, Comput. Mater. Sci. 81, 446 (2014)

   Truncated Coulomb potentials:
      R. Sundararaman and T.A. Arias, Phys. Rev. B 87, 165122 (2013)

   Total energy minimization with Auxiliary Hamiltonian:
      C. Freysoldt, S. Boeck, and J. Neugebauer, Phys. Rev. B 79, 241103(R) (2009)

This list may not be complete. Please suggest additional citations or
report any other bugs at https://github.com/shankar1729/jdftx/issues

Initialization completed successfully at t[s]:   3077.79


-------- Electronic minimization -----------
	FillingsUpdate:  mu: -0.220263096  nElectrons: 338.000000
ElecMinimize: Iter:   0  F: -1818.621716187234824  |grad|_K:  1.538e-04  alpha:  1.000e+00
	FillingsUpdate:  mu: -0.169103544  nElectrons: 338.000000
	SubspaceRotationAdjust: set factor to 1
ElecMinimize: Iter:   1  F: -1819.130059134648945  |grad|_K:  7.724e-05  alpha:  4.523e-01  linmin:  1.068e-04  t[s]:   3667.24
	FillingsUpdate:  mu: -0.240556901  nElectrons: 338.000000
	SubspaceRotationAdjust: set factor to 0.625
ElecMinimize: Iter:   2  F: -1819.201080314096089  |grad|_K:  9.364e-05  alpha:  2.483e-01  linmin: -1.907e-05  t[s]:   4079.20
	FillingsUpdate:  mu: -0.204677871  nElectrons: 338.000000
	SubspaceRotationAdjust: set factor to 0.448
ElecMinimize: Iter:   3  F: -1819.245239542263562  |grad|_K:  4.330e-05  alpha:  1.028e-01  linmin: -2.555e-05  t[s]:   4489.66
	FillingsUpdate:  mu: -0.199450858  nElectrons: 338.000000
	SubspaceRotationAdjust: set factor to 0.297
ElecMinimize: Iter:   4  F: -1819.249126052302245  |grad|_K:  4.236e-05  alpha:  4.246e-02  linmin: -8.108e-06  t[s]:   4902.69
ElecMinimize: 	Predicted alpha/alphaT>3.000000, increasing alphaT to 1.273842e-01.
	FillingsUpdate:  mu: -0.183358918  nElectrons: 338.000000
	SubspaceRotationAdjust: set factor to 0.194
ElecMinimize: Iter:   5  F: -1819.266435658215869  |grad|_K:  3.339e-05  alpha:  1.997e-01  linmin:  2.075e-05  t[s]:   5408.64
	FillingsUpdate:  mu: -0.187214948  nElectrons: 338.000000
	SubspaceRotationAdjust: set factor to 0.137
ElecMinimize: Iter:   6  F: -1819.268945937498984  |grad|_K:  1.800e-05  alpha:  4.736e-02  linmin:  2.887e-05  t[s]:   5817.34
ElecMinimize: 	Predicted alpha/alphaT>3.000000, increasing alphaT to 1.420736e-01.
	FillingsUpdate:  mu: -0.190616830  nElectrons: 338.000000
	SubspaceRotationAdjust: set factor to 0.0874
	SubspaceRotationAdjust: resetting CG because factor has changed by 0.0873939
ElecMinimize: 	State modified externally: resetting search direction.
ElecMinimize: Iter:   7  F: -1819.272627198929513  |grad|_K:  1.806e-05  alpha:  2.373e-01
	FillingsUpdate:  mu: -0.193651435  nElectrons: 338.000000
	SubspaceRotationAdjust: set factor to 0.0702
ElecMinimize: Iter:   8  F: -1819.274788307409153  |grad|_K:  7.098e-06  alpha:  1.372e-01  linmin: -1.843e-05  t[s]:   6897.70
ElecMinimize: 	Predicted alpha/alphaT>3.000000, increasing alphaT to 4.116314e-01.
	FillingsUpdate:  mu: -0.191425516  nElectrons: 338.000000
	SubspaceRotationAdjust: set factor to 0.0813
ElecMinimize: Iter:   9  F: -1819.276092238017100  |grad|_K:  4.833e-06  alpha:  5.363e-01  linmin:  1.806e-05  t[s]:   7408.19
	FillingsUpdate:  mu: -0.192768015  nElectrons: 338.000000
	SubspaceRotationAdjust: set factor to 0.103
ElecMinimize: Iter:  10  F: -1819.276781840188733  |grad|_K:  3.789e-06  alpha:  6.124e-01  linmin:  2.147e-05  t[s]:   7824.05
	FillingsUpdate:  mu: -0.192784531  nElectrons: 338.000000
	SubspaceRotationAdjust: set factor to 0.129
ElecMinimize: Iter:  11  F: -1819.277213953858336  |grad|_K:  3.676e-06  alpha:  6.249e-01  linmin:  2.752e-05  t[s]:   8242.53
	FillingsUpdate:  mu: -0.191462182  nElectrons: 338.000000
	SubspaceRotationAdjust: set factor to 0.0988
ElecMinimize: Iter:  12  F: -1819.277655858938715  |grad|_K:  6.110e-06  alpha:  6.823e-01  linmin:  2.992e-05  t[s]:   8651.43
	FillingsUpdate:  mu: -0.191137423  nElectrons: 338.000000
	SubspaceRotationAdjust: set factor to 0.0785
ElecMinimize: Iter:  13  F: -1819.277983488877453  |grad|_K:  4.354e-06  alpha:  1.790e-01  linmin: -3.109e-05  t[s]:   9063.62
ElecMinimize: 	Predicted alpha/alphaT>3.000000, increasing alphaT to 5.369454e-01.
	FillingsUpdate:  mu: -0.191532774  nElectrons: 338.000000
	SubspaceRotationAdjust: set factor to 0.0956
ElecMinimize: Iter:  14  F: -1819.278494667426230  |grad|_K:  4.688e-06  alpha:  5.484e-01  linmin:  1.033e-05  t[s]:   9571.67
	FillingsUpdate:  mu: -0.191604278  nElectrons: 338.000000
	SubspaceRotationAdjust: set factor to 0.0767
ElecMinimize: Iter:  15  F: -1819.278774569829466  |grad|_K:  4.309e-06  alpha:  2.650e-01  linmin: -7.441e-06  t[s]:   9986.56
	FillingsUpdate:  mu: -0.190883793  nElectrons: 338.000000
	SubspaceRotationAdjust: set factor to 0.0869
ElecMinimize: Iter:  16  F: -1819.279074316865717  |grad|_K:  2.575e-06  alpha:  3.326e-01  linmin: -3.873e-06  t[s]:  10395.02
	FillingsUpdate:  mu: -0.190351038  nElectrons: 338.000000
	SubspaceRotationAdjust: set factor to 0.0887
ElecMinimize: Iter:  17  F: -1819.279187549966764  |grad|_K:  2.125e-06  alpha:  3.529e-01  linmin: -2.887e-06  t[s]:  10804.26
	FillingsUpdate:  mu: -0.190220753  nElectrons: 338.000000
	SubspaceRotationAdjust: set factor to 0.0772
ElecMinimize: Iter:  18  F: -1819.279236467776855  |grad|_K:  1.489e-06  alpha:  2.240e-01  linmin: -1.564e-06  t[s]:  11214.21
	FillingsUpdate:  mu: -0.190092887  nElectrons: 338.000000
	SubspaceRotationAdjust: set factor to 0.111
ElecMinimize: Iter:  19  F: -1819.279279448212947  |grad|_K:  1.092e-06  alpha:  4.021e-01  linmin:  9.452e-06  t[s]:  11622.30
	FillingsUpdate:  mu: -0.189836501  nElectrons: 338.000000
	SubspaceRotationAdjust: set factor to 0.0868
ElecMinimize: Iter:  20  F: -1819.279303279113492  |grad|_K:  1.118e-06  alpha:  4.158e-01  linmin:  3.330e-06  t[s]:  12035.57
	FillingsUpdate:  mu: -0.189656240  nElectrons: 338.000000
	SubspaceRotationAdjust: set factor to 0.086
ElecMinimize: Iter:  21  F: -1819.279317039969328  |grad|_K:  9.727e-07  alpha:  2.281e-01  linmin: -4.937e-08  t[s]:  12450.11
	FillingsUpdate:  mu: -0.189440178  nElectrons: 338.000000
	SubspaceRotationAdjust: set factor to 0.122
ElecMinimize: Iter:  22  F: -1819.279339793734835  |grad|_K:  9.536e-07  alpha:  4.997e-01  linmin:  6.580e-06  t[s]:  12865.33
	FillingsUpdate:  mu: -0.189538936  nElectrons: 338.000000
	SubspaceRotationAdjust: set factor to 0.107
ElecMinimize: Iter:  23  F: -1819.279359275839170  |grad|_K:  1.331e-06  alpha:  4.471e-01  linmin:  3.414e-06  t[s]:  13277.75
	FillingsUpdate:  mu: -0.189760847  nElectrons: 338.000000
	SubspaceRotationAdjust: set factor to 0.0989
ElecMinimize: Iter:  24  F: -1819.279377537032815  |grad|_K:  1.054e-06  alpha:  2.133e-01  linmin: -3.245e-07  t[s]:  13689.86
	FillingsUpdate:  mu: -0.189952434  nElectrons: 338.000000
	SubspaceRotationAdjust: set factor to 0.123
ElecMinimize: Iter:  25  F: -1819.279404684509700  |grad|_K:  1.066e-06  alpha:  5.129e-01  linmin:  1.219e-05  t[s]:  14100.29
	FillingsUpdate:  mu: -0.189950882  nElectrons: 338.000000
	SubspaceRotationAdjust: set factor to 0.112
ElecMinimize: Iter:  26  F: -1819.279418548222111  |grad|_K:  1.086e-06  alpha:  2.565e-01  linmin: -3.086e-06  t[s]:  14512.45
	FillingsUpdate:  mu: -0.189989174  nElectrons: 338.000000
	SubspaceRotationAdjust: set factor to 0.131
ElecMinimize: Iter:  27  F: -1819.279432196862899  |grad|_K:  7.206e-07  alpha:  2.383e-01  linmin:  2.050e-06  t[s]:  14926.81
	FillingsUpdate:  mu: -0.190206471  nElectrons: 338.000000
	SubspaceRotationAdjust: set factor to 0.147
ElecMinimize: Iter:  28  F: -1819.279442180857131  |grad|_K:  6.305e-07  alpha:  4.002e-01  linmin:  3.081e-06  t[s]:  15342.77
	FillingsUpdate:  mu: -0.190365671  nElectrons: 338.000000
	SubspaceRotationAdjust: set factor to 0.111
ElecMinimize: Iter:  29  F: -1819.279447208422880  |grad|_K:  6.968e-07  alpha:  2.629e-01  linmin: -2.289e-07  t[s]:  15750.09
	FillingsUpdate:  mu: -0.190491316  nElectrons: 338.000000
	SubspaceRotationAdjust: set factor to 0.136
ElecMinimize: Iter:  30  F: -1819.279451541090566  |grad|_K:  4.759e-07  alpha:  1.847e-01  linmin:  1.652e-07  t[s]:  16163.35
	FillingsUpdate:  mu: -0.190507078  nElectrons: 338.000000
	SubspaceRotationAdjust: set factor to 0.153
ElecMinimize: Iter:  31  F: -1819.279456018672818  |grad|_K:  4.373e-07  alpha:  4.100e-01  linmin:  1.630e-06  t[s]:  16577.64
	FillingsUpdate:  mu: -0.190490386  nElectrons: 338.000000
	SubspaceRotationAdjust: set factor to 0.118
ElecMinimize: Iter:  32  F: -1819.279458663477044  |grad|_K:  5.510e-07  alpha:  2.869e-01  linmin:  4.472e-07  t[s]:  16988.21
	FillingsUpdate:  mu: -0.190487257  nElectrons: 338.000000
	SubspaceRotationAdjust: set factor to 0.132
ElecMinimize: Iter:  33  F: -1819.279461374243283  |grad|_K:  4.023e-07  alpha:  1.849e-01  linmin:  1.062e-07  t[s]:  17403.29
	FillingsUpdate:  mu: -0.190506138  nElectrons: 338.000000
	SubspaceRotationAdjust: set factor to 0.155
ElecMinimize: Iter:  34  F: -1819.279464516299868  |grad|_K:  3.983e-07  alpha:  4.021e-01  linmin:  9.834e-08  t[s]:  17815.31
	FillingsUpdate:  mu: -0.190480409  nElectrons: 338.000000
	SubspaceRotationAdjust: set factor to 0.135
ElecMinimize: Iter:  35  F: -1819.279466219398046  |grad|_K:  4.542e-07  alpha:  2.224e-01  linmin: -8.597e-08  t[s]:  18227.83
	FillingsUpdate:  mu: -0.190412069  nElectrons: 338.000000
	SubspaceRotationAdjust: set factor to 0.173
ElecMinimize: Iter:  36  F: -1819.279468429059989  |grad|_K:  3.271e-07  alpha:  2.218e-01  linmin: -2.144e-07  t[s]:  18642.26
	FillingsUpdate:  mu: -0.190323439  nElectrons: 338.000000
	SubspaceRotationAdjust: set factor to 0.17
ElecMinimize: Iter:  37  F: -1819.279470512838088  |grad|_K:  3.520e-07  alpha:  4.032e-01  linmin: -6.217e-07  t[s]:  19052.92
	FillingsUpdate:  mu: -0.190290870  nElectrons: 338.000000
	SubspaceRotationAdjust: set factor to 0.141
ElecMinimize: Iter:  38  F: -1819.279471555321834  |grad|_K:  3.734e-07  alpha:  1.744e-01  linmin:  3.291e-07  t[s]:  19463.58
	FillingsUpdate:  mu: -0.190266720  nElectrons: 338.000000
	SubspaceRotationAdjust: set factor to 0.195
ElecMinimize: Iter:  39  F: -1819.279472969917379  |grad|_K:  2.560e-07  alpha:  2.102e-01  linmin: -6.804e-07  t[s]:  19879.80
	FillingsUpdate:  mu: -0.190229265  nElectrons: 338.000000
	SubspaceRotationAdjust: set factor to 0.168
ElecMinimize: Iter:  40  F: -1819.279474167457920  |grad|_K:  2.998e-07  alpha:  3.772e-01  linmin: -1.625e-06  t[s]:  20294.43
	FillingsUpdate:  mu: -0.190206584  nElectrons: 338.000000
	SubspaceRotationAdjust: set factor to 0.152
ElecMinimize: Iter:  41  F: -1819.279474721509814  |grad|_K:  2.664e-07  alpha:  1.272e-01  linmin:  3.035e-07  t[s]:  20704.48
	FillingsUpdate:  mu: -0.190174490  nElectrons: 338.000000
	SubspaceRotationAdjust: set factor to 0.208
ElecMinimize: Iter:  42  F: -1819.279475665130803  |grad|_K:  2.061e-07  alpha:  2.752e-01  linmin: -8.538e-07  t[s]:  21115.54
	FillingsUpdate:  mu: -0.190180954  nElectrons: 338.000000
	SubspaceRotationAdjust: set factor to 0.147
ElecMinimize: Iter:  43  F: -1819.279476182168310  |grad|_K:  2.820e-07  alpha:  2.520e-01  linmin: -3.658e-08  t[s]:  21528.67
	FillingsUpdate:  mu: -0.190199238  nElectrons: 338.000000
	SubspaceRotationAdjust: set factor to 0.17
ElecMinimize: Iter:  44  F: -1819.279476661635726  |grad|_K:  1.783e-07  alpha:  1.248e-01  linmin:  1.396e-08  t[s]:  21944.46
ElecMinimize: 	Predicted alpha/alphaT>3.000000, increasing alphaT to 3.743455e-01.
	FillingsUpdate:  mu: -0.190232868  nElectrons: 338.000000
	SubspaceRotationAdjust: set factor to 0.161
ElecMinimize: Iter:  45  F: -1819.279477244912869  |grad|_K:  1.962e-07  alpha:  3.799e-01  linmin: -3.772e-07  t[s]:  22453.60
	FillingsUpdate:  mu: -0.190248281  nElectrons: 338.000000
	SubspaceRotationAdjust: set factor to 0.143
ElecMinimize: Iter:  46  F: -1819.279477496094160  |grad|_K:  1.783e-07  alpha:  1.349e-01  linmin:  1.186e-07  t[s]:  22866.66
	FillingsUpdate:  mu: -0.190270293  nElectrons: 338.000000
	SubspaceRotationAdjust: set factor to 0.216
ElecMinimize: Iter:  47  F: -1819.279477920357976  |grad|_K:  1.392e-07  alpha:  2.767e-01  linmin:  5.764e-07  t[s]:  23279.09
	FillingsUpdate:  mu: -0.190283945  nElectrons: 338.000000
	SubspaceRotationAdjust: set factor to 0.16
ElecMinimize: Iter:  48  F: -1819.279478128675919  |grad|_K:  1.818e-07  alpha:  2.235e-01  linmin: -5.297e-07  t[s]:  23690.38
	FillingsUpdate:  mu: -0.190299690  nElectrons: 338.000000
	SubspaceRotationAdjust: set factor to 0.176
ElecMinimize: Iter:  49  F: -1819.279478335931344  |grad|_K:  1.126e-07  alpha:  1.296e-01  linmin:  9.764e-08  t[s]:  24105.50
	FillingsUpdate:  mu: -0.190310301  nElectrons: 338.000000
	SubspaceRotationAdjust: set factor to 0.185
ElecMinimize: Iter:  50  F: -1819.279478560271855  |grad|_K:  1.091e-07  alpha:  3.651e-01  linmin: -1.514e-06  t[s]:  24517.71
	FillingsUpdate:  mu: -0.190310239  nElectrons: 338.000000
	SubspaceRotationAdjust: set factor to 0.148
ElecMinimize: Iter:  51  F: -1819.279478664356930  |grad|_K:  1.246e-07  alpha:  1.801e-01  linmin: -2.583e-07  t[s]:  24929.73
	FillingsUpdate:  mu: -0.190309585  nElectrons: 338.000000
	SubspaceRotationAdjust: set factor to 0.201
ElecMinimize: Iter:  52  F: -1819.279478806647603  |grad|_K:  8.497e-08  alpha:  1.897e-01  linmin:  4.614e-07  t[s]:  25344.57
	FillingsUpdate:  mu: -0.190313188  nElectrons: 338.000000
	SubspaceRotationAdjust: set factor to 0.174
ElecMinimize: Iter:  53  F: -1819.279478941133902  |grad|_K:  9.933e-08  alpha:  3.830e-01  linmin: -1.776e-06  t[s]:  25756.96
	FillingsUpdate:  mu: -0.190311173  nElectrons: 338.000000
	SubspaceRotationAdjust: set factor to 0.156
ElecMinimize: Iter:  54  F: -1819.279479006987003  |grad|_K:  9.929e-08  alpha:  1.386e-01  linmin:  6.714e-08  t[s]:  26168.08
	FillingsUpdate:  mu: -0.190301012  nElectrons: 338.000000
	SubspaceRotationAdjust: set factor to 0.233
ElecMinimize: Iter:  55  F: -1819.279479131052994  |grad|_K:  7.712e-08  alpha:  2.640e-01  linmin:  2.189e-06  t[s]:  26582.73
	FillingsUpdate:  mu: -0.190286364  nElectrons: 338.000000
	SubspaceRotationAdjust: set factor to 0.178
ElecMinimize: Iter:  56  F: -1819.279479205241614  |grad|_K:  1.073e-07  alpha:  2.622e-01  linmin: -1.766e-07  t[s]:  26993.30
	FillingsUpdate:  mu: -0.190273162  nElectrons: 338.000000
	SubspaceRotationAdjust: set factor to 0.156
ElecMinimize: Iter:  57  F: -1819.279479263535222  |grad|_K:  6.838e-08  alpha:  1.038e-01  linmin:  1.474e-07  t[s]:  27406.17
ElecMinimize: 	Predicted alpha/alphaT>3.000000, increasing alphaT to 3.115148e-01.
	FillingsUpdate:  mu: -0.190262380  nElectrons: 338.000000
	SubspaceRotationAdjust: set factor to 0.211
ElecMinimize: Iter:  58  F: -1819.279479337476914  |grad|_K:  6.243e-08  alpha:  3.277e-01  linmin: -7.111e-07  t[s]:  27918.91
	FillingsUpdate:  mu: -0.190261272  nElectrons: 338.000000
	SubspaceRotationAdjust: set factor to 0.187
ElecMinimize: Iter:  59  F: -1819.279479369457022  |grad|_K:  6.703e-08  alpha:  1.671e-01  linmin: -1.560e-07  t[s]:  28336.70
	FillingsUpdate:  mu: -0.190261290  nElectrons: 338.000000
	SubspaceRotationAdjust: set factor to 0.209
ElecMinimize: Iter:  60  F: -1819.279479407064173  |grad|_K:  4.531e-08  alpha:  1.719e-01  linmin: -2.586e-06  t[s]:  28748.35
	FillingsUpdate:  mu: -0.190260049  nElectrons: 338.000000
	SubspaceRotationAdjust: set factor to 0.247
ElecMinimize: Iter:  61  F: -1819.279479440902833  |grad|_K:  3.870e-08  alpha:  3.244e-01  linmin: -7.727e-06  t[s]:  29159.41
	FillingsUpdate:  mu: -0.190261408  nElectrons: 338.000000
	SubspaceRotationAdjust: set factor to 0.267
ElecMinimize: Iter:  62  F: -1819.279479468819318  |grad|_K:  3.794e-08  alpha:  3.713e-01  linmin:  1.492e-06  t[s]:  29571.85
	FillingsUpdate:  mu: -0.190269293  nElectrons: 338.000000
	SubspaceRotationAdjust: set factor to 0.203
ElecMinimize: Iter:  63  F: -1819.279479487743629  |grad|_K:  4.985e-08  alpha:  2.789e-01  linmin: -7.926e-07  t[s]:  29987.31
	FillingsUpdate:  mu: -0.190275110  nElectrons: 338.000000
	SubspaceRotationAdjust: set factor to 0.172
ElecMinimize: Iter:  64  F: -1819.279479499740546  |grad|_K:  3.778e-08  alpha:  9.427e-02  linmin: -1.673e-08  t[s]:  30399.36
	FillingsUpdate:  mu: -0.190280303  nElectrons: 338.000000
	SubspaceRotationAdjust: set factor to 0.259
ElecMinimize: Iter:  65  F: -1819.279479516438869  |grad|_K:  3.132e-08  alpha:  1.893e-01  linmin: -3.028e-05  t[s]:  30811.11
	FillingsUpdate:  mu: -0.190281825  nElectrons: 338.000000
	SubspaceRotationAdjust: set factor to 0.181
ElecMinimize: Iter:  66  F: -1819.279479531413244  |grad|_K:  4.936e-08  alpha:  2.362e-01  linmin: -2.050e-06  t[s]:  31225.44
	FillingsUpdate:  mu: -0.190283438  nElectrons: 338.000000
	SubspaceRotationAdjust: set factor to 0.247
ElecMinimize: Iter:  67  F: -1819.279479543371281  |grad|_K:  2.945e-08  alpha:  9.366e-02  linmin:  2.773e-07  t[s]:  31634.34
	FillingsUpdate:  mu: -0.190286169  nElectrons: 338.000000
	SubspaceRotationAdjust: set factor to 0.172
ElecMinimize: Iter:  68  F: -1819.279479550936003  |grad|_K:  4.439e-08  alpha:  1.986e-01  linmin:  4.412e-06  t[s]:  32042.40
	FillingsUpdate:  mu: -0.190289166  nElectrons: 338.000000
	SubspaceRotationAdjust: set factor to 0.293
ElecMinimize: Iter:  69  F: -1819.279479558354069  |grad|_K:  2.334e-08  alpha:  8.344e-02  linmin:  1.169e-06  t[s]:  32457.28
ElecMinimize: Converged (|Delta F|<1.000000e-08 for 2 iters).
Setting wave functions to eigenvectors of Hamiltonian

# Ionic positions in lattice coordinates:
ion H   0.636540000000000   0.720090000000000   0.334610000000000 1
ion H   0.296850000000000   0.459720000000000   0.334620000000000 1
ion C   0.551550000000000   0.555130000000000   0.334610000000000 1
ion O   0.596130000000000   0.342640000000000   0.334610000000000 1
ion O   0.369350000000000   0.604650000000000   0.334620000000000 1
ion Pt   0.000000000000000   0.000000000000000  -0.166660000000000 0
ion Pt   0.000000000000000   0.500000000000000  -0.166660000000000 0
ion Pt   0.500000000000000   0.000000000000000  -0.166660000000000 0
ion Pt   0.500000000000000   0.500000000000000  -0.166660000000000 0
ion Pt   0.250000000000000   0.250000000000000  -0.083330000000000 0
ion Pt   0.250000000000000   0.750000000000000  -0.083330000000000 0
ion Pt   0.750000000000000   0.250000000000000  -0.083330000000000 0
ion Pt   0.750000000000000   0.750000000000000  -0.083330000000000 0
ion Pt   0.000000000000000   0.000000000000000   0.000000000000000 1
ion Pt   0.000000000000000   0.500000000000000   0.000000000000000 1
ion Pt   0.500000000000000   0.000000000000000   0.000000000000000 1
ion Pt   0.500000000000000   0.500000000000000   0.000000000000000 1
ion Pt   0.250000000000000   0.250000000000000   0.083330000000000 1
ion Pt   0.250000000000000   0.750000000000000   0.083330000000000 1
ion Pt   0.750000000000000   0.250000000000000   0.083330000000000 1
ion Pt   0.750000000000000   0.750000000000000   0.083330000000000 1
ion Pt   0.000000000000000   0.000000000000000   0.166660000000000 1
ion Pt   0.000000000000000   0.500000000000000   0.166660000000000 1
ion Pt   0.500000000000000   0.000000000000000   0.166660000000000 1
ion Pt   0.500000000000000   0.500000000000000   0.166660000000000 1


# Forces in Lattice coordinates:
force H   0.092878608517517   0.075013193718410   0.045887779910657 1
force H  -0.195923389471331  -0.382939128921666  -0.034512727814720 1
force C  -0.473152042842695  -0.278356121170871  -0.195049058820366 1
force O   0.415053014760305  -0.102332383984937   0.120458825471425 1
force O   0.149347337046154   0.681996082501289   0.173039471672325 1
force Pt  -0.000110019456354   0.000024763758150  -0.441607769738061 0
force Pt   0.000084838686581   0.000037798228262  -0.445577778606734 0
force Pt   0.000085559400933  -0.000346160397083  -0.439711968236000 0
force Pt   0.000100706209381   0.000291832517593  -0.422976743841676 0
force Pt  -0.002051615596231  -0.000437060299492  -0.877912619323854 0
force Pt  -0.002692775127929   0.000454908932195  -0.876422430324565 0
force Pt   0.002524227084450  -0.000391972128984  -0.880345675987468 0
force Pt   0.002566779255069   0.000459651976250  -0.877075921418645 0
force Pt  -0.001177461294408  -0.000473168710247  -0.008035575772164 1
force Pt  -0.001303358876112   0.000436433945053  -0.002506353732248 1
force Pt  -0.000523408655914   0.000342595430052   0.010331095422544 1
force Pt   0.000446318272962  -0.000912975622021   0.039470642245634 1
force Pt  -0.016947233930111  -0.004232853653762   0.854460283739457 1
force Pt  -0.005529954091155   0.001503918980901   0.864052690744667 1
force Pt   0.007260647697190  -0.003042232045457   0.855947119958566 1
force Pt   0.013837133048755   0.004087784955506   0.860318267778872 1
force Pt   0.000617348894761   0.000073700459925   0.447594125352974 1
force Pt   0.002080204104902  -0.000707887734555   0.434041881994771 1
force Pt  -0.000486753500156   0.002587971640004   0.397330845239714 1
force Pt   0.012017538502953   0.007308002350520   0.409035414893383 1

# Energy components:
   Eewald =   -13896.3623802063557378
       EH =   -12361.0403794774556445
     Eloc =    24114.8975801418928313
      Enl =      -15.3349982581149344
      Exc =     -576.5370059322530096
 Exc_core =      324.9917846100792076
       KE =      590.3381776352121051
-------------------------------------
     Etot =    -1819.0472214869969321
       TS =        0.2322580713570292
-------------------------------------
        F =    -1819.2794795583540690

IonicMinimize: Iter:   0  F: -1819.279479558354069  |grad|_K:  1.591e-02  t[s]:  32522.96

#--- Lowdin population analysis ---
# oxidation-state H +0.226 +0.436
# oxidation-state C +0.424
# oxidation-state O -0.318 -0.398
# oxidation-state Pt +0.070 +0.070 +0.070 +0.070 -0.045 -0.046 -0.046 -0.045 +0.016 +0.016 +0.017 +0.016 -0.048 -0.041 -0.041 -0.045 +0.050 +0.030 +0.041 -0.009


-------- Electronic minimization -----------
	FillingsUpdate:  mu: -0.113019588  nElectrons: 338.000000
ElecMinimize: Iter:   0  F: -1819.069166716859627  |grad|_K:  1.532e-04  alpha:  1.000e+00
	FillingsUpdate:  mu: -0.115170882  nElectrons: 338.000000
	SubspaceRotationAdjust: set factor to 0.18
ElecMinimize: Iter:   1  F: -1819.141715636026674  |grad|_K:  1.663e-04  alpha:  9.354e-02  linmin:  1.773e-02  t[s]:  33251.59
	FillingsUpdate:  mu: -0.200408046  nElectrons: 338.000000
	SubspaceRotationAdjust: set factor to 0.112
ElecMinimize: Iter:   2  F: -1819.243260060006378  |grad|_K:  6.745e-05  alpha:  1.085e-01  linmin: -3.958e-04  t[s]:  33661.87
	FillingsUpdate:  mu: -0.219972649  nElectrons: 338.000000
	SubspaceRotationAdjust: set factor to 0.108
ElecMinimize: Iter:   3  F: -1819.260105448630611  |grad|_K:  3.582e-05  alpha:  7.616e-02  linmin:  5.901e-05  t[s]:  34075.78
ElecMinimize: 	Predicted alpha/alphaT>3.000000, increasing alphaT to 2.284664e-01.
	FillingsUpdate:  mu: -0.188756396  nElectrons: 338.000000
	SubspaceRotationAdjust: set factor to 0.0715
ElecMinimize: Iter:   4  F: -1819.274563290500964  |grad|_K:  2.752e-05  alpha:  2.336e-01  linmin:  1.054e-04  t[s]:  34583.71
	FillingsUpdate:  mu: -0.189294969  nElectrons: 338.000000
	SubspaceRotationAdjust: set factor to 0.0904
ElecMinimize: Iter:   5  F: -1819.278289549915144  |grad|_K:  1.201e-05  alpha:  1.015e-01  linmin: -1.916e-04  t[s]:  34994.38
	FillingsUpdate:  mu: -0.189716654  nElectrons: 338.000000
	SubspaceRotationAdjust: set factor to 0.0661
ElecMinimize: Iter:   6  F: -1819.280001926142404  |grad|_K:  1.252e-05  alpha:  2.450e-01  linmin:  3.385e-05  t[s]:  35407.73
	FillingsUpdate:  mu: -0.194393361  nElectrons: 338.000000
	SubspaceRotationAdjust: set factor to 0.113
ElecMinimize: Iter:   7  F: -1819.281317949299591  |grad|_K:  7.421e-06  alpha:  1.739e-01  linmin:  4.783e-06  t[s]:  35820.48
	FillingsUpdate:  mu: -0.193541399  nElectrons: 338.000000
	SubspaceRotationAdjust: set factor to 0.0833
ElecMinimize: Iter:   8  F: -1819.282046943391379  |grad|_K:  9.224e-06  alpha:  2.746e-01  linmin:  7.424e-05  t[s]:  36234.21
	FillingsUpdate:  mu: -0.191414600  nElectrons: 338.000000
	SubspaceRotationAdjust: set factor to 0.127
ElecMinimize: Iter:   9  F: -1819.282987963273854  |grad|_K:  6.708e-06  alpha:  2.299e-01  linmin: -9.915e-06  t[s]:  36645.72
	FillingsUpdate:  mu: -0.188335011  nElectrons: 338.000000
	SubspaceRotationAdjust: set factor to 0.0908
ElecMinimize: Iter:  10  F: -1819.283730063955090  |grad|_K:  9.412e-06  alpha:  3.409e-01  linmin: -4.858e-05  t[s]:  37058.38
	FillingsUpdate:  mu: -0.187193381  nElectrons: 338.000000
	SubspaceRotationAdjust: set factor to 0.101
ElecMinimize: Iter:  11  F: -1819.284569775004684  |grad|_K:  6.441e-06  alpha:  1.942e-01  linmin: -2.115e-05  t[s]:  37468.78
	FillingsUpdate:  mu: -0.187112226  nElectrons: 338.000000
	SubspaceRotationAdjust: set factor to 0.0709
ElecMinimize: Iter:  12  F: -1819.285513596547844  |grad|_K:  9.193e-06  alpha:  4.738e-01  linmin:  1.305e-04  t[s]:  37881.85
	FillingsUpdate:  mu: -0.188796632  nElectrons: 338.000000
	SubspaceRotationAdjust: set factor to 0.0705
ElecMinimize: Iter:  13  F: -1819.286240766705305  |grad|_K:  5.990e-06  alpha:  1.846e-01  linmin:  9.378e-05  t[s]:  38293.73
	FillingsUpdate:  mu: -0.187419569  nElectrons: 338.000000
	SubspaceRotationAdjust: set factor to 0.0653
ElecMinimize: Iter:  14  F: -1819.286892070268095  |grad|_K:  6.180e-06  alpha:  3.795e-01  linmin: -8.115e-05  t[s]:  38706.02
	FillingsUpdate:  mu: -0.187383902  nElectrons: 338.000000
	SubspaceRotationAdjust: set factor to 0.0661
ElecMinimize: Iter:  15  F: -1819.287280216884710  |grad|_K:  3.875e-06  alpha:  2.078e-01  linmin: -1.918e-05  t[s]:  39117.69
	FillingsUpdate:  mu: -0.188076319  nElectrons: 338.000000
	SubspaceRotationAdjust: set factor to 0.0636
ElecMinimize: Iter:  16  F: -1819.287529700337700  |grad|_K:  3.561e-06  alpha:  3.439e-01  linmin:  2.710e-05  t[s]:  39530.15
	FillingsUpdate:  mu: -0.188983065  nElectrons: 338.000000
	SubspaceRotationAdjust: set factor to 0.0639
ElecMinimize: Iter:  17  F: -1819.287656920760355  |grad|_K:  2.183e-06  alpha:  2.085e-01  linmin:  4.503e-06  t[s]:  39938.99
	FillingsUpdate:  mu: -0.189327113  nElectrons: 338.000000
	SubspaceRotationAdjust: set factor to 0.0665
ElecMinimize: Iter:  18  F: -1819.287729920032234  |grad|_K:  1.882e-06  alpha:  3.172e-01  linmin: -1.104e-05  t[s]:  40353.15
	FillingsUpdate:  mu: -0.189529594  nElectrons: 338.000000
	SubspaceRotationAdjust: set factor to 0.0678
ElecMinimize: Iter:  19  F: -1819.287766869602592  |grad|_K:  1.193e-06  alpha:  2.160e-01  linmin:  1.133e-07  t[s]:  40762.02
	FillingsUpdate:  mu: -0.189717788  nElectrons: 338.000000
	SubspaceRotationAdjust: set factor to 0.0782
ElecMinimize: Iter:  20  F: -1819.287788450230664  |grad|_K:  1.022e-06  alpha:  3.141e-01  linmin:  1.183e-06  t[s]:  41170.44
	FillingsUpdate:  mu: -0.189900525  nElectrons: 338.000000
	SubspaceRotationAdjust: set factor to 0.0754
ElecMinimize: Iter:  21  F: -1819.287799051146749  |grad|_K:  6.610e-07  alpha:  2.104e-01  linmin:  9.508e-07  t[s]:  41582.51
	FillingsUpdate:  mu: -0.190077260  nElectrons: 338.000000
	SubspaceRotationAdjust: set factor to 0.0899
ElecMinimize: Iter:  22  F: -1819.287805700259241  |grad|_K:  5.667e-07  alpha:  3.152e-01  linmin: -2.737e-06  t[s]:  41995.32
	FillingsUpdate:  mu: -0.190184447  nElectrons: 338.000000
	SubspaceRotationAdjust: set factor to 0.0817
ElecMinimize: Iter:  23  F: -1819.287809257824847  |grad|_K:  4.560e-07  alpha:  2.295e-01  linmin:  1.374e-07  t[s]:  42409.15
	FillingsUpdate:  mu: -0.190287290  nElectrons: 338.000000
	SubspaceRotationAdjust: set factor to 0.117
ElecMinimize: Iter:  24  F: -1819.287812622502088  |grad|_K:  3.783e-07  alpha:  3.352e-01  linmin: -2.043e-06  t[s]:  42822.61
	FillingsUpdate:  mu: -0.190337377  nElectrons: 338.000000
	SubspaceRotationAdjust: set factor to 0.0987
ElecMinimize: Iter:  25  F: -1819.287814761795062  |grad|_K:  4.240e-07  alpha:  3.096e-01  linmin:  1.077e-06  t[s]:  43236.37
	FillingsUpdate:  mu: -0.190362089  nElectrons: 338.000000
	SubspaceRotationAdjust: set factor to 0.101
ElecMinimize: Iter:  26  F: -1819.287816788885721  |grad|_K:  3.131e-07  alpha:  2.337e-01  linmin:  7.339e-07  t[s]:  43646.91
	FillingsUpdate:  mu: -0.190401831  nElectrons: 338.000000
	SubspaceRotationAdjust: set factor to 0.123
ElecMinimize: Iter:  27  F: -1819.287818978836640  |grad|_K:  2.993e-07  alpha:  4.627e-01  linmin: -9.046e-07  t[s]:  44056.77
	FillingsUpdate:  mu: -0.190447234  nElectrons: 338.000000
	SubspaceRotationAdjust: set factor to 0.104
ElecMinimize: Iter:  28  F: -1819.287820052683628  |grad|_K:  2.927e-07  alpha:  2.481e-01  linmin:  5.959e-07  t[s]:  44465.38
	FillingsUpdate:  mu: -0.190491523  nElectrons: 338.000000
	SubspaceRotationAdjust: set factor to 0.1
ElecMinimize: Iter:  29  F: -1819.287821104367367  |grad|_K:  2.057e-07  alpha:  2.543e-01  linmin: -1.053e-06  t[s]:  44881.35
	FillingsUpdate:  mu: -0.190493312  nElectrons: 338.000000
	SubspaceRotationAdjust: set factor to 0.125
ElecMinimize: Iter:  30  F: -1819.287821903026725  |grad|_K:  1.620e-07  alpha:  3.908e-01  linmin:  6.717e-07  t[s]:  45297.08
	FillingsUpdate:  mu: -0.190479691  nElectrons: 338.000000
	SubspaceRotationAdjust: set factor to 0.122
ElecMinimize: Iter:  31  F: -1819.287822359156962  |grad|_K:  1.585e-07  alpha:  3.599e-01  linmin: -7.401e-07  t[s]:  45706.79
	FillingsUpdate:  mu: -0.190479576  nElectrons: 338.000000
	SubspaceRotationAdjust: set factor to 0.0985
ElecMinimize: Iter:  32  F: -1819.287822597442073  |grad|_K:  1.287e-07  alpha:  1.962e-01  linmin:  2.626e-07  t[s]:  46116.84
	FillingsUpdate:  mu: -0.190495721  nElectrons: 338.000000
	SubspaceRotationAdjust: set factor to 0.108
ElecMinimize: Iter:  33  F: -1819.287822849434178  |grad|_K:  8.782e-08  alpha:  3.150e-01  linmin: -2.727e-06  t[s]:  46529.15
	FillingsUpdate:  mu: -0.190495352  nElectrons: 338.000000
	SubspaceRotationAdjust: set factor to 0.127
ElecMinimize: Iter:  34  F: -1819.287822994201633  |grad|_K:  7.012e-08  alpha:  3.910e-01  linmin:  1.183e-05  t[s]:  46944.15
	FillingsUpdate:  mu: -0.190486041  nElectrons: 338.000000
	SubspaceRotationAdjust: set factor to 0.116
ElecMinimize: Iter:  35  F: -1819.287823066548981  |grad|_K:  6.628e-08  alpha:  3.067e-01  linmin:  1.667e-06  t[s]:  47350.88
	FillingsUpdate:  mu: -0.190482159  nElectrons: 338.000000
	SubspaceRotationAdjust: set factor to 0.0951
ElecMinimize: Iter:  36  F: -1819.287823107218401  |grad|_K:  4.911e-08  alpha:  1.917e-01  linmin:  1.933e-06  t[s]:  47761.64
	FillingsUpdate:  mu: -0.190481731  nElectrons: 338.000000
	SubspaceRotationAdjust: set factor to 0.114
ElecMinimize: Iter:  37  F: -1819.287823147996960  |grad|_K:  3.694e-08  alpha:  3.699e-01  linmin:  5.629e-05  t[s]:  48172.13
	FillingsUpdate:  mu: -0.190478965  nElectrons: 338.000000
	SubspaceRotationAdjust: set factor to 0.134
ElecMinimize: Iter:  38  F: -1819.287823174997129  |grad|_K:  3.203e-08  alpha:  4.286e-01  linmin:  1.734e-06  t[s]:  48578.66
	FillingsUpdate:  mu: -0.190472586  nElectrons: 338.000000
	SubspaceRotationAdjust: set factor to 0.126
ElecMinimize: Iter:  39  F: -1819.287823191615644  |grad|_K:  3.285e-08  alpha:  3.375e-01  linmin:  8.322e-06  t[s]:  48991.94
	FillingsUpdate:  mu: -0.190467354  nElectrons: 338.000000
	SubspaceRotationAdjust: set factor to 0.0994
ElecMinimize: Iter:  40  F: -1819.287823201453421  |grad|_K:  2.694e-08  alpha:  1.918e-01  linmin:  3.290e-06  t[s]:  49401.21
	FillingsUpdate:  mu: -0.190461572  nElectrons: 338.000000
	SubspaceRotationAdjust: set factor to 0.103
ElecMinimize: Iter:  41  F: -1819.287823213620413  |grad|_K:  2.135e-08  alpha:  3.850e-01  linmin:  7.193e-05  t[s]:  49814.09
	FillingsUpdate:  mu: -0.190458648  nElectrons: 338.000000
	SubspaceRotationAdjust: set factor to 0.112
ElecMinimize: Iter:  42  F: -1819.287823220351129  |grad|_K:  1.556e-08  alpha:  3.852e-01  linmin: -2.649e-06  t[s]:  50224.06
	FillingsUpdate:  mu: -0.190456285  nElectrons: 338.000000
	SubspaceRotationAdjust: set factor to 0.119
ElecMinimize: Iter:  43  F: -1819.287823224578233  |grad|_K:  1.136e-08  alpha:  3.469e-01  linmin:  4.760e-05  t[s]:  50634.82
ElecMinimize: Converged (|Delta F|<1.000000e-08 for 2 iters).
Setting wave functions to eigenvectors of Hamiltonian

# Ionic positions in lattice coordinates:
ion H   0.637038104276592   0.720785517258324   0.334657274260019 1
ion H   0.295799270669126   0.456169414298337   0.334584444484526 1
ion C   0.549012504447686   0.552549100872291   0.334409057615315 1
ion O   0.598355912779751   0.341691181057373   0.334734098438582 1
ion O   0.370150943817610   0.610973421547278   0.334798267787052 1
ion Pt   0.000000000000000   0.000000000000000  -0.166660000000000 0
ion Pt   0.000000000000000   0.500000000000000  -0.166660000000000 0
ion Pt   0.500000000000000   0.000000000000000  -0.166660000000000 0
ion Pt   0.500000000000000   0.500000000000000  -0.166660000000000 0
ion Pt   0.250000000000000   0.250000000000000  -0.083330000000000 0
ion Pt   0.250000000000000   0.750000000000000  -0.083330000000000 0
ion Pt   0.750000000000000   0.250000000000000  -0.083330000000000 0
ion Pt   0.750000000000000   0.750000000000000  -0.083330000000000 0
ion Pt  -0.000006314678004  -0.000004387188277  -0.000008278367339 1
ion Pt  -0.000006989861718   0.500004046586018  -0.000002582082164 1
ion Pt   0.499997192980234   0.000003176521655   0.000010643245157 1
ion Pt   0.500002393587114   0.499991534951786   0.000040663231219 1
ion Pt   0.249909112659721   0.249960753267229   0.084210277444410 1
ion Pt   0.249970343076558   0.750013944235067   0.084220159681988 1
ion Pt   0.750038938564289   0.249971792630249   0.084211809204765 1
ion Pt   0.750074207993179   0.750037901665613   0.084216312424991 1
ion Pt   0.000003310817523   0.000000683345679   0.167121117994946 1
ion Pt   0.000011156051726   0.499993436512806   0.167107156276214 1
ion Pt   0.499997389560374   0.000023995497998   0.167069336030813 1
ion Pt   0.500064449580135   0.500067759303487   0.167081394249151 1


# Forces in Lattice coordinates:
force H  -0.013669898601251  -0.058539450992953   0.028207330628121 1
force H   0.115084850867681   0.082366738668364  -0.038590379980228 1
force C  -0.075124152547341  -0.028467559790833  -0.147068467610726 1
force O   0.238572709565640  -0.080967484589692   0.103178403311204 1
force O  -0.279357475195180   0.079710779952642   0.173915950361367 1
force Pt  -0.000073102781045   0.000053100366771  -0.440800383744202 0
force Pt   0.000128714533009   0.000019001013575  -0.444315194784005 0
force Pt   0.000091279601491  -0.000346321882403  -0.436681703940117 0
force Pt   0.000077680441133   0.000289484039238  -0.420732602252972 0
force Pt  -0.001580344814551  -0.000155543568597  -0.838025043307715 0
force Pt  -0.002082904225003   0.000160157950483  -0.837505879163734 0
force Pt   0.001771754923547  -0.000110097724461  -0.842664680682555 0
force Pt   0.001793138823978   0.000166747176828  -0.839004527682567 0
force Pt  -0.000831858615473  -0.000536347759376   0.052290276780938 1
force Pt  -0.001111019259008   0.000429124951563   0.058231940789209 1
force Pt  -0.000433006894856   0.000160190924347   0.071615519880115 1
force Pt   0.000627241730744  -0.000684452716771   0.094900233060843 1
force Pt  -0.014484373827241  -0.003256279911531   0.747109044144414 1
force Pt  -0.005136683491654   0.000872591103871   0.753252716523869 1
force Pt   0.007179313386182  -0.002542861781185   0.745362331769801 1
force Pt   0.012930572976649   0.003727477208626   0.749969969245071 1
force Pt   0.000725079661355   0.000009447433167   0.452724659124197 1
force Pt   0.002782182002492  -0.000918208275118   0.440046098968911 1
force Pt  -0.000607448429245   0.003100243129883   0.402955218891180 1
force Pt   0.011375355922284   0.005256740170970   0.403638403151418 1

# Energy components:
   Eewald =   -13914.4897450867392763
       EH =   -12379.1244469238245074
     Eloc =    24151.1816552330019476
      Enl =      -15.3544536153067455
      Exc =     -576.4916196439914984
 Exc_core =      324.9917817867215035
       KE =      590.2315108670845802
-------------------------------------
     Etot =    -1819.0553173830558080
       TS =        0.2325058415224846
-------------------------------------
        F =    -1819.2878232245782328

IonicMinimize: Iter:   1  F: -1819.287823224578233  |grad|_K:  9.071e-03  alpha:  1.000e+00  linmin: -4.131e-01  t[s]:  50701.05

#--- Lowdin population analysis ---
# oxidation-state H +0.213 +0.422
# oxidation-state C +0.427
# oxidation-state O -0.320 -0.374
# oxidation-state Pt +0.071 +0.071 +0.071 +0.070 -0.045 -0.045 -0.045 -0.045 +0.016 +0.015 +0.016 +0.015 -0.049 -0.042 -0.042 -0.046 +0.050 +0.029 +0.041 -0.012


-------- Electronic minimization -----------
	FillingsUpdate:  mu: -0.049923035  nElectrons: 338.000000
ElecMinimize: Iter:   0  F: -1818.695516636339562  |grad|_K:  2.248e-04  alpha:  1.000e+00
	FillingsUpdate:  mu: -0.084497033  nElectrons: 338.000000
	SubspaceRotationAdjust: set factor to 0.0725
ElecMinimize: Iter:   1  F: -1819.066270562243744  |grad|_K:  1.598e-04  alpha:  1.752e-01  linmin:  1.847e-02  t[s]:  51427.73
	FillingsUpdate:  mu: -0.211113454  nElectrons: 338.000000
	SubspaceRotationAdjust: set factor to 0.154
ElecMinimize: Iter:   2  F: -1819.237207088035120  |grad|_K:  3.875e-05  alpha:  1.579e-01  linmin: -7.255e-04  t[s]:  51841.73
	FillingsUpdate:  mu: -0.193328220  nElectrons: 338.000000
	SubspaceRotationAdjust: set factor to 0.104
ElecMinimize: Iter:   3  F: -1819.259495250557620  |grad|_K:  3.206e-05  alpha:  3.073e-01  linmin:  7.031e-04  t[s]:  52253.59
	FillingsUpdate:  mu: -0.192501657  nElectrons: 338.000000
	SubspaceRotationAdjust: set factor to 0.0777
ElecMinimize: Iter:   4  F: -1819.264980431442154  |grad|_K:  1.467e-05  alpha:  1.106e-01  linmin: -1.948e-04  t[s]:  52664.60
ElecMinimize: 	Predicted alpha/alphaT>3.000000, increasing alphaT to 3.317461e-01.
	FillingsUpdate:  mu: -0.187968590  nElectrons: 338.000000
	SubspaceRotationAdjust: set factor to 0.109
ElecMinimize: Iter:   5  F: -1819.270862453629434  |grad|_K:  1.350e-05  alpha:  5.638e-01  linmin: -8.793e-06  t[s]:  53173.24
	FillingsUpdate:  mu: -0.185719820  nElectrons: 338.000000
	SubspaceRotationAdjust: set factor to 0.0719
ElecMinimize: Iter:   6  F: -1819.274800663514725  |grad|_K:  1.902e-05  alpha:  4.446e-01  linmin:  8.289e-05  t[s]:  53589.09
	FillingsUpdate:  mu: -0.190164811  nElectrons: 338.000000
	SubspaceRotationAdjust: set factor to 0.0728
ElecMinimize: Iter:   7  F: -1819.279576613050267  |grad|_K:  1.301e-05  alpha:  2.786e-01  linmin:  2.031e-05  t[s]:  54000.32
	FillingsUpdate:  mu: -0.186591835  nElectrons: 338.000000
	SubspaceRotationAdjust: set factor to 0.0818
ElecMinimize: Iter:   8  F: -1819.284996850929701  |grad|_K:  1.188e-05  alpha:  6.641e-01  linmin: -1.155e-05  t[s]:  54413.79
	FillingsUpdate:  mu: -0.184433818  nElectrons: 338.000000
	SubspaceRotationAdjust: set factor to 0.0638
ElecMinimize: Iter:   9  F: -1819.288675998071312  |grad|_K:  1.406e-05  alpha:  5.362e-01  linmin:  7.040e-05  t[s]:  54827.50
	FillingsUpdate:  mu: -0.188584269  nElectrons: 338.000000
	SubspaceRotationAdjust: set factor to 0.0454
ElecMinimize: Iter:  10  F: -1819.291192417595767  |grad|_K:  9.456e-06  alpha:  2.722e-01  linmin:  1.002e-04  t[s]:  55235.64
	FillingsUpdate:  mu: -0.190654681  nElectrons: 338.000000
	SubspaceRotationAdjust: set factor to 0.0554
ElecMinimize: Iter:  11  F: -1819.292834447034920  |grad|_K:  5.726e-06  alpha:  3.851e-01  linmin:  2.976e-05  t[s]:  55646.97
	FillingsUpdate:  mu: -0.190101130  nElectrons: 338.000000
	SubspaceRotationAdjust: set factor to 0.0503
ElecMinimize: Iter:  12  F: -1819.293479913338388  |grad|_K:  4.334e-06  alpha:  4.088e-01  linmin:  2.553e-05  t[s]:  56058.15
	FillingsUpdate:  mu: -0.190144290  nElectrons: 338.000000
	SubspaceRotationAdjust: set factor to 0.0422
ElecMinimize: Iter:  13  F: -1819.293786653556936  |grad|_K:  2.712e-06  alpha:  3.388e-01  linmin: -1.403e-05  t[s]:  56469.62
	FillingsUpdate:  mu: -0.190752041  nElectrons: 338.000000
	SubspaceRotationAdjust: set factor to 0.0505
ElecMinimize: Iter:  14  F: -1819.293926756479095  |grad|_K:  1.811e-06  alpha:  3.943e-01  linmin:  5.403e-06  t[s]:  56877.82
	FillingsUpdate:  mu: -0.191089506  nElectrons: 338.000000
	SubspaceRotationAdjust: set factor to 0.0576
ElecMinimize: Iter:  15  F: -1819.293992830490879  |grad|_K:  1.437e-06  alpha:  4.174e-01  linmin:  2.258e-06  t[s]:  57291.74
	FillingsUpdate:  mu: -0.191272826  nElectrons: 338.000000
	SubspaceRotationAdjust: set factor to 0.0595
ElecMinimize: Iter:  16  F: -1819.294040049902605  |grad|_K:  1.249e-06  alpha:  4.734e-01  linmin: -9.036e-06  t[s]:  57703.66
	FillingsUpdate:  mu: -0.191430840  nElectrons: 338.000000
	SubspaceRotationAdjust: set factor to 0.0598
ElecMinimize: Iter:  17  F: -1819.294071814424569  |grad|_K:  1.106e-06  alpha:  4.215e-01  linmin:  1.401e-06  t[s]:  58117.08
	FillingsUpdate:  mu: -0.191605598  nElectrons: 338.000000
	SubspaceRotationAdjust: set factor to 0.0706
ElecMinimize: Iter:  18  F: -1819.294104997604791  |grad|_K:  1.062e-06  alpha:  5.618e-01  linmin: -2.830e-06  t[s]:  58526.17
	FillingsUpdate:  mu: -0.191539857  nElectrons: 338.000000
	SubspaceRotationAdjust: set factor to 0.0785
ElecMinimize: Iter:  19  F: -1819.294140718800008  |grad|_K:  1.104e-06  alpha:  6.562e-01  linmin: -4.509e-06  t[s]:  58937.58
	FillingsUpdate:  mu: -0.191370382  nElectrons: 338.000000
	SubspaceRotationAdjust: set factor to 0.0673
ElecMinimize: Iter:  20  F: -1819.294164378453161  |grad|_K:  1.145e-06  alpha:  4.020e-01  linmin: -1.842e-06  t[s]:  59348.17
	FillingsUpdate:  mu: -0.191188276  nElectrons: 338.000000
	SubspaceRotationAdjust: set factor to 0.0579
ElecMinimize: Iter:  21  F: -1819.294187646334422  |grad|_K:  8.682e-07  alpha:  3.676e-01  linmin: -4.717e-06  t[s]:  59759.38
	FillingsUpdate:  mu: -0.191040411  nElectrons: 338.000000
	SubspaceRotationAdjust: set factor to 0.0652
ElecMinimize: Iter:  22  F: -1819.294205670773181  |grad|_K:  6.463e-07  alpha:  4.951e-01  linmin:  2.199e-06  t[s]:  60174.69
	FillingsUpdate:  mu: -0.190954709  nElectrons: 338.000000
	SubspaceRotationAdjust: set factor to 0.069
ElecMinimize: Iter:  23  F: -1819.294214300596650  |grad|_K:  4.572e-07  alpha:  4.280e-01  linmin:  5.758e-07  t[s]:  60585.65
	FillingsUpdate:  mu: -0.190892884  nElectrons: 338.000000
	SubspaceRotationAdjust: set factor to 0.0586
ElecMinimize: Iter:  24  F: -1819.294217933292202  |grad|_K:  3.598e-07  alpha:  3.600e-01  linmin:  1.537e-08  t[s]:  60995.83
	FillingsUpdate:  mu: -0.190844346  nElectrons: 338.000000
	SubspaceRotationAdjust: set factor to 0.0551
ElecMinimize: Iter:  25  F: -1819.294220067650713  |grad|_K:  2.537e-07  alpha:  3.414e-01  linmin: -2.504e-06  t[s]:  61406.68
	FillingsUpdate:  mu: -0.190835977  nElectrons: 338.000000
	SubspaceRotationAdjust: set factor to 0.0698
ElecMinimize: Iter:  26  F: -1819.294221509969475  |grad|_K:  1.867e-07  alpha:  4.643e-01  linmin:  1.112e-05  t[s]:  61821.60
	FillingsUpdate:  mu: -0.190859748  nElectrons: 338.000000
	SubspaceRotationAdjust: set factor to 0.0813
ElecMinimize: Iter:  27  F: -1819.294222368421742  |grad|_K:  1.815e-07  alpha:  5.108e-01  linmin:  1.556e-05  t[s]:  62230.44
	FillingsUpdate:  mu: -0.190899574  nElectrons: 338.000000
	SubspaceRotationAdjust: set factor to 0.0782
ElecMinimize: Iter:  28  F: -1819.294223136562550  |grad|_K:  1.997e-07  alpha:  4.842e-01  linmin:  2.226e-06  t[s]:  62639.10
	FillingsUpdate:  mu: -0.190954530  nElectrons: 338.000000
	SubspaceRotationAdjust: set factor to 0.0672
ElecMinimize: Iter:  29  F: -1819.294223820376828  |grad|_K:  1.745e-07  alpha:  3.552e-01  linmin: -4.634e-07  t[s]:  63051.71
	FillingsUpdate:  mu: -0.191026068  nElectrons: 338.000000
	SubspaceRotationAdjust: set factor to 0.0696
ElecMinimize: Iter:  30  F: -1819.294224509713104  |grad|_K:  1.371e-07  alpha:  4.691e-01  linmin:  7.792e-06  t[s]:  63468.51
	FillingsUpdate:  mu: -0.191086629  nElectrons: 338.000000
	SubspaceRotationAdjust: set factor to 0.0767
ElecMinimize: Iter:  31  F: -1819.294224989003396  |grad|_K:  9.970e-08  alpha:  5.282e-01  linmin: -1.473e-05  t[s]:  63876.47
	FillingsUpdate:  mu: -0.191111014  nElectrons: 338.000000
	SubspaceRotationAdjust: set factor to 0.0797
ElecMinimize: Iter:  32  F: -1819.294225186170706  |grad|_K:  7.097e-08  alpha:  4.112e-01  linmin: -2.592e-06  t[s]:  64291.14
	FillingsUpdate:  mu: -0.191120369  nElectrons: 338.000000
	SubspaceRotationAdjust: set factor to 0.0687
ElecMinimize: Iter:  33  F: -1819.294225264317447  |grad|_K:  5.596e-08  alpha:  3.229e-01  linmin:  2.856e-05  t[s]:  64701.42
	FillingsUpdate:  mu: -0.191125583  nElectrons: 338.000000
	SubspaceRotationAdjust: set factor to 0.0627
ElecMinimize: Iter:  34  F: -1819.294225313681181  |grad|_K:  4.260e-08  alpha:  3.274e-01  linmin:  2.891e-05  t[s]:  65110.67
	FillingsUpdate:  mu: -0.191124095  nElectrons: 338.000000
	SubspaceRotationAdjust: set factor to 0.0797
ElecMinimize: Iter:  35  F: -1819.294225350502074  |grad|_K:  3.196e-08  alpha:  4.256e-01  linmin: -7.843e-05  t[s]:  65526.96
	FillingsUpdate:  mu: -0.191117143  nElectrons: 338.000000
	SubspaceRotationAdjust: set factor to 0.0924
ElecMinimize: Iter:  36  F: -1819.294225378998590  |grad|_K:  3.288e-08  alpha:  5.877e-01  linmin:  2.308e-04  t[s]:  65937.83
	FillingsUpdate:  mu: -0.191109992  nElectrons: 338.000000
	SubspaceRotationAdjust: set factor to 0.0846
ElecMinimize: Iter:  37  F: -1819.294225400923324  |grad|_K:  3.743e-08  alpha:  4.491e-01  linmin: -1.312e-05  t[s]:  66350.12
	FillingsUpdate:  mu: -0.191101283  nElectrons: 338.000000
	SubspaceRotationAdjust: set factor to 0.0675
ElecMinimize: Iter:  38  F: -1819.294225419557733  |grad|_K:  2.685e-08  alpha:  2.777e-01  linmin:  2.023e-05  t[s]:  66761.67
	FillingsUpdate:  mu: -0.191089677  nElectrons: 338.000000
	SubspaceRotationAdjust: set factor to 0.0716
ElecMinimize: Iter:  39  F: -1819.294225436724219  |grad|_K:  2.029e-08  alpha:  4.701e-01  linmin: -1.524e-06  t[s]:  67172.33
	FillingsUpdate:  mu: -0.191082396  nElectrons: 338.000000
	SubspaceRotationAdjust: set factor to 0.0821
ElecMinimize: Iter:  40  F: -1819.294225445313714  |grad|_K:  1.480e-08  alpha:  4.650e-01  linmin: -6.988e-05  t[s]:  67580.77
	FillingsUpdate:  mu: -0.191078691  nElectrons: 338.000000
	SubspaceRotationAdjust: set factor to 0.0954
ElecMinimize: Iter:  41  F: -1819.294225450650629  |grad|_K:  1.234e-08  alpha:  4.982e-01  linmin:  2.510e-04  t[s]:  67995.17
ElecMinimize: Converged (|Delta F|<1.000000e-08 for 2 iters).
Setting wave functions to eigenvectors of Hamiltonian

# Ionic positions in lattice coordinates:
ion H   0.637170224400086   0.720321847791684   0.334722820841029 1
ion H   0.296201307380072   0.455582498917719   0.334508802057318 1
ion C   0.547196870565829   0.550917030291109   0.334089250924484 1
ion O   0.601311464832950   0.340129139467023   0.334950332489810 1
ion O   0.368331987925186   0.615108081854031   0.335147854235193 1
ion Pt   0.000000000000000   0.000000000000000  -0.166660000000000 0
ion Pt   0.000000000000000   0.500000000000000  -0.166660000000000 0
ion Pt   0.500000000000000   0.000000000000000  -0.166660000000000 0
ion Pt   0.500000000000000   0.500000000000000  -0.166660000000000 0
ion Pt   0.250000000000000   0.250000000000000  -0.083330000000000 0
ion Pt   0.250000000000000   0.750000000000000  -0.083330000000000 0
ion Pt   0.750000000000000   0.250000000000000  -0.083330000000000 0
ion Pt   0.750000000000000   0.750000000000000  -0.083330000000000 0
ion Pt  -0.000015923057942  -0.000013819958349   0.000067014070043 1
ion Pt  -0.000019126920166   0.500011852115557   0.000084463749104 1
ion Pt   0.499992422803794   0.000006893039985   0.000124353631616 1
ion Pt   0.500008497592840   0.499978116271390   0.000204142612212 1
ion Pt   0.249750997101893   0.249897408201140   0.085767192225134 1
ion Pt   0.249915510353771   0.750032570339541   0.085791151150149 1
ion Pt   0.750114365596128   0.249923501935980   0.085766813740785 1
ion Pt   0.750212022831883   0.750107028380888   0.085780472850929 1
ion Pt   0.000010629001565   0.000001141533664   0.168029720363295 1
ion Pt   0.000038490635384   0.499977744368195   0.167989808191650 1
ion Pt   0.499991337286830   0.000077862497455   0.167877527762090 1
ion Pt   0.500185287393327   0.500172140727313   0.167896432095741 1


# Forces in Lattice coordinates:
force H  -0.072118380134394  -0.112877525869004   0.007493693042979 1
force H   0.119075407038819   0.184422845464776  -0.025045578613729 1
force C   0.114441830020447   0.010084300274484  -0.098444664463114 1
force O   0.025428117325802   0.078707754728370   0.076650202347815 1
force O  -0.203488429343508  -0.167487991263412   0.150870119191409 1
force Pt  -0.000038194041932   0.000087153669495  -0.433178454125244 0
force Pt   0.000164988386043   0.000010382989708  -0.435664948068633 0
force Pt   0.000102883253013  -0.000387665720733  -0.425799839395851 0
force Pt   0.000090379902914   0.000343630901442  -0.410777046963101 0
force Pt  -0.000558910476401   0.000314873179543  -0.767218807268590 0
force Pt  -0.000816215740248  -0.000290538329919  -0.767920115949949 0
force Pt   0.000400050987337   0.000290920920289  -0.774426403949229 0
force Pt   0.000336367908173  -0.000249513914438  -0.770441915537862 0
force Pt  -0.000317526522736  -0.000567807146312   0.145364650932905 1
force Pt  -0.000582367988566   0.000389710843228   0.151765242210281 1
force Pt  -0.000384602246825  -0.000044719372670   0.163600298450247 1
force Pt   0.000532809645783  -0.000529656878870   0.178423599034563 1
force Pt  -0.010655864119993  -0.001873496929222   0.577036899761956 1
force Pt  -0.004535180413668   0.000217904084756   0.577945610547123 1
force Pt   0.007260689189024  -0.001779923895345   0.569889775807780 1
force Pt   0.011513637527876   0.003206384084885   0.574700337771979 1
force Pt   0.000941406446170  -0.000121524166641   0.457455071889176 1
force Pt   0.002701042571619  -0.000828431773369   0.444570378701575 1
force Pt  -0.000742058949175   0.003382399841183   0.410161715459946 1
force Pt   0.010571641063828   0.005088262579692   0.422167137576946 1

# Energy components:
   Eewald =   -13948.1887838350667153
       EH =   -12412.8630974068128126
     Eloc =    24218.7181835094525013
      Enl =      -15.3802166917965231
      Exc =     -576.4341796863785703
 Exc_core =      324.9917843799596540
       KE =      590.0950881267031036
-------------------------------------
     Etot =    -1819.0612216039412488
       TS =        0.2330038467092689
-------------------------------------
        F =    -1819.2942254506506288

IonicMinimize: Iter:   2  F: -1819.294225450650629  |grad|_K:  8.211e-03  alpha:  1.000e+00  linmin: -4.252e-01  t[s]:  68061.19

#--- Lowdin population analysis ---
# oxidation-state H +0.208 +0.418
# oxidation-state C +0.424
# oxidation-state O -0.319 -0.366
# oxidation-state Pt +0.071 +0.071 +0.071 +0.071 -0.045 -0.045 -0.045 -0.045 +0.014 +0.014 +0.014 +0.014 -0.049 -0.042 -0.042 -0.046 +0.051 +0.031 +0.042 -0.014


-------- Electronic minimization -----------
	FillingsUpdate:  mu: +0.146842185  nElectrons: 338.000000
ElecMinimize: Iter:   0  F: -1816.552589228649367  |grad|_K:  4.797e-04  alpha:  1.000e+00
	FillingsUpdate:  mu: +0.026689918  nElectrons: 338.000000
	SubspaceRotationAdjust: set factor to 0.057
ElecMinimize: Iter:   1  F: -1818.375453436240150  |grad|_K:  3.234e-04  alpha:  2.128e-01  linmin:  4.126e-02  t[s]:  68784.90
	FillingsUpdate:  mu: -0.202272146  nElectrons: 338.000000
	SubspaceRotationAdjust: set factor to 0.13
ElecMinimize: Iter:   2  F: -1819.047172246435139  |grad|_K:  8.700e-05  alpha:  1.671e-01  linmin: -3.020e-04  t[s]:  69199.82
	FillingsUpdate:  mu: -0.191141664  nElectrons: 338.000000
	SubspaceRotationAdjust: set factor to 0.0975
ElecMinimize: Iter:   3  F: -1819.140880796717965  |grad|_K:  6.329e-05  alpha:  2.570e-01  linmin:  1.388e-03  t[s]:  69615.50
	FillingsUpdate:  mu: -0.191348337  nElectrons: 338.000000
	SubspaceRotationAdjust: set factor to 0.0773
ElecMinimize: Iter:   4  F: -1819.168782734558363  |grad|_K:  2.878e-05  alpha:  1.451e-01  linmin: -6.645e-05  t[s]:  70034.30
ElecMinimize: 	Predicted alpha/alphaT>3.000000, increasing alphaT to 4.354414e-01.
	FillingsUpdate:  mu: -0.181713772  nElectrons: 338.000000
	SubspaceRotationAdjust: set factor to 0.104
ElecMinimize: Iter:   5  F: -1819.194971487793737  |grad|_K:  2.737e-05  alpha:  6.570e-01  linmin:  1.563e-04  t[s]:  70544.02
	FillingsUpdate:  mu: -0.187331246  nElectrons: 338.000000
	SubspaceRotationAdjust: set factor to 0.103
ElecMinimize: Iter:   6  F: -1819.223325928033773  |grad|_K:  3.064e-05  alpha:  7.950e-01  linmin:  2.466e-04  t[s]:  70955.18
	FillingsUpdate:  mu: -0.180528256  nElectrons: 338.000000
	SubspaceRotationAdjust: set factor to 0.0831
ElecMinimize: Iter:   7  F: -1819.239121030678689  |grad|_K:  4.017e-05  alpha:  3.814e-01  linmin:  3.048e-04  t[s]:  71367.45
	FillingsUpdate:  mu: -0.184190166  nElectrons: 338.000000
	SubspaceRotationAdjust: set factor to 0.0573
ElecMinimize: Iter:   8  F: -1819.260888585554540  |grad|_K:  2.666e-05  alpha:  2.790e-01  linmin:  9.709e-05  t[s]:  71780.48
	FillingsUpdate:  mu: -0.184323871  nElectrons: 338.000000
	SubspaceRotationAdjust: set factor to 0.0734
ElecMinimize: Iter:   9  F: -1819.282919666316047  |grad|_K:  2.331e-05  alpha:  6.439e-01  linmin: -9.803e-05  t[s]:  72190.41
	FillingsUpdate:  mu: -0.189490281  nElectrons: 338.000000
	SubspaceRotationAdjust: set factor to 0.063
ElecMinimize: Iter:  10  F: -1819.295611055283416  |grad|_K:  1.613e-05  alpha:  4.829e-01  linmin: -6.987e-05  t[s]:  72611.88
	FillingsUpdate:  mu: -0.190990402  nElectrons: 338.000000
	SubspaceRotationAdjust: set factor to 0.0431
ElecMinimize: Iter:  11  F: -1819.299114599936274  |grad|_K:  1.107e-05  alpha:  2.748e-01  linmin: -5.472e-05  t[s]:  73021.71
	FillingsUpdate:  mu: -0.192416999  nElectrons: 338.000000
	SubspaceRotationAdjust: set factor to 0.0405
ElecMinimize: Iter:  12  F: -1819.301245749242526  |grad|_K:  6.855e-06  alpha:  3.585e-01  linmin: -7.724e-05  t[s]:  73431.38
	FillingsUpdate:  mu: -0.192271688  nElectrons: 338.000000
	SubspaceRotationAdjust: set factor to 0.0465
ElecMinimize: Iter:  13  F: -1819.302131952719492  |grad|_K:  4.310e-06  alpha:  3.891e-01  linmin: -5.435e-06  t[s]:  73844.30
	FillingsUpdate:  mu: -0.192533162  nElectrons: 338.000000
	SubspaceRotationAdjust: set factor to 0.0474
ElecMinimize: Iter:  14  F: -1819.302447661225642  |grad|_K:  2.708e-06  alpha:  3.520e-01  linmin:  7.724e-06  t[s]:  74255.12
	FillingsUpdate:  mu: -0.193044440  nElectrons: 338.000000
	SubspaceRotationAdjust: set factor to 0.0501
ElecMinimize: Iter:  15  F: -1819.302614301026551  |grad|_K:  2.256e-06  alpha:  4.707e-01  linmin: -2.055e-05  t[s]:  74664.34
	FillingsUpdate:  mu: -0.193351111  nElectrons: 338.000000
	SubspaceRotationAdjust: set factor to 0.0629
ElecMinimize: Iter:  16  F: -1819.302728970299768  |grad|_K:  1.837e-06  alpha:  4.664e-01  linmin:  1.179e-06  t[s]:  75076.80
	FillingsUpdate:  mu: -0.193427409  nElectrons: 338.000000
	SubspaceRotationAdjust: set factor to 0.0733
ElecMinimize: Iter:  17  F: -1819.302812582898696  |grad|_K:  1.727e-06  alpha:  5.133e-01  linmin:  5.778e-07  t[s]:  75491.32
	FillingsUpdate:  mu: -0.193368133  nElectrons: 338.000000
	SubspaceRotationAdjust: set factor to 0.069
ElecMinimize: Iter:  18  F: -1819.302884644807364  |grad|_K:  1.970e-06  alpha:  5.008e-01  linmin: -1.119e-05  t[s]:  75907.42
	FillingsUpdate:  mu: -0.193116244  nElectrons: 338.000000
	SubspaceRotationAdjust: set factor to 0.0636
ElecMinimize: Iter:  19  F: -1819.302952469619640  |grad|_K:  1.529e-06  alpha:  3.619e-01  linmin:  1.614e-07  t[s]:  76319.94
	FillingsUpdate:  mu: -0.192600524  nElectrons: 338.000000
	SubspaceRotationAdjust: set factor to 0.0772
ElecMinimize: Iter:  20  F: -1819.303015411228444  |grad|_K:  1.271e-06  alpha:  5.574e-01  linmin: -4.405e-06  t[s]:  76732.78
	FillingsUpdate:  mu: -0.192186322  nElectrons: 338.000000
	SubspaceRotationAdjust: set factor to 0.0855
ElecMinimize: Iter:  21  F: -1819.303061192074665  |grad|_K:  1.148e-06  alpha:  5.871e-01  linmin: -2.729e-06  t[s]:  77144.64
	FillingsUpdate:  mu: -0.191849430  nElectrons: 338.000000
	SubspaceRotationAdjust: set factor to 0.0778
ElecMinimize: Iter:  22  F: -1819.303086725724597  |grad|_K:  1.107e-06  alpha:  4.012e-01  linmin:  2.863e-07  t[s]:  77556.84
	FillingsUpdate:  mu: -0.191647064  nElectrons: 338.000000
	SubspaceRotationAdjust: set factor to 0.062
ElecMinimize: Iter:  23  F: -1819.303102973298110  |grad|_K:  7.995e-07  alpha:  2.745e-01  linmin: -3.795e-07  t[s]:  77973.65
	FillingsUpdate:  mu: -0.191522830  nElectrons: 338.000000
	SubspaceRotationAdjust: set factor to 0.0731
ElecMinimize: Iter:  24  F: -1819.303116326932923  |grad|_K:  5.764e-07  alpha:  4.328e-01  linmin:  3.734e-06  t[s]:  78388.51
	FillingsUpdate:  mu: -0.191482525  nElectrons: 338.000000
	SubspaceRotationAdjust: set factor to 0.0873
ElecMinimize: Iter:  25  F: -1819.303124440272086  |grad|_K:  4.642e-07  alpha:  5.060e-01  linmin:  2.409e-06  t[s]:  78800.94
	FillingsUpdate:  mu: -0.191500012  nElectrons: 338.000000
	SubspaceRotationAdjust: set factor to 0.0817
ElecMinimize: Iter:  26  F: -1819.303128839958163  |grad|_K:  4.478e-07  alpha:  4.231e-01  linmin: -1.138e-06  t[s]:  79212.53
	FillingsUpdate:  mu: -0.191591103  nElectrons: 338.000000
	SubspaceRotationAdjust: set factor to 0.0709
ElecMinimize: Iter:  27  F: -1819.303131750885086  |grad|_K:  3.997e-07  alpha:  3.007e-01  linmin:  1.941e-06  t[s]:  79625.46
	FillingsUpdate:  mu: -0.191812339  nElectrons: 338.000000
	SubspaceRotationAdjust: set factor to 0.0789
ElecMinimize: Iter:  28  F: -1819.303135187886483  |grad|_K:  3.103e-07  alpha:  4.457e-01  linmin: -9.044e-07  t[s]:  80041.80
	FillingsUpdate:  mu: -0.191975563  nElectrons: 338.000000
	SubspaceRotationAdjust: set factor to 0.0917
ElecMinimize: Iter:  29  F: -1819.303137619099061  |grad|_K:  2.526e-07  alpha:  5.228e-01  linmin: -2.307e-06  t[s]:  80452.24
	FillingsUpdate:  mu: -0.192070557  nElectrons: 338.000000
	SubspaceRotationAdjust: set factor to 0.0839
ElecMinimize: Iter:  30  F: -1819.303138957843430  |grad|_K:  2.493e-07  alpha:  4.347e-01  linmin: -8.365e-08  t[s]:  80866.48
	FillingsUpdate:  mu: -0.192138881  nElectrons: 338.000000
	SubspaceRotationAdjust: set factor to 0.0624
ElecMinimize: Iter:  31  F: -1819.303139656934491  |grad|_K:  1.748e-07  alpha:  2.329e-01  linmin:  3.302e-07  t[s]:  81279.30
	FillingsUpdate:  mu: -0.192210465  nElectrons: 338.000000
	SubspaceRotationAdjust: set factor to 0.0749
ElecMinimize: Iter:  32  F: -1819.303140259326938  |grad|_K:  1.133e-07  alpha:  4.080e-01  linmin: -1.527e-05  t[s]:  81694.35
	FillingsUpdate:  mu: -0.192231958  nElectrons: 338.000000
	SubspaceRotationAdjust: set factor to 0.0882
ElecMinimize: Iter:  33  F: -1819.303140535529792  |grad|_K:  8.943e-08  alpha:  4.448e-01  linmin: -1.743e-05  t[s]:  82104.75
	FillingsUpdate:  mu: -0.192235115  nElectrons: 338.000000
	SubspaceRotationAdjust: set factor to 0.0826
ElecMinimize: Iter:  34  F: -1819.303140683414995  |grad|_K:  8.956e-08  alpha:  3.823e-01  linmin:  2.108e-05  t[s]:  82517.70
	FillingsUpdate:  mu: -0.192228751  nElectrons: 338.000000
	SubspaceRotationAdjust: set factor to 0.0741
ElecMinimize: Iter:  35  F: -1819.303140799589755  |grad|_K:  6.986e-08  alpha:  3.007e-01  linmin: -4.742e-05  t[s]:  82932.39
	FillingsUpdate:  mu: -0.192215348  nElectrons: 338.000000
	SubspaceRotationAdjust: set factor to 0.0849
ElecMinimize: Iter:  36  F: -1819.303140902840823  |grad|_K:  5.449e-08  alpha:  4.441e-01  linmin:  2.689e-04  t[s]:  83344.97
	FillingsUpdate:  mu: -0.192198319  nElectrons: 338.000000
[...]
ion Pt   0.499949002518731   0.000820670135441   0.177851450430904 1
ion Pt   0.501360163663885   0.501460405171155   0.178381923281710 1


# Forces in Lattice coordinates:
force H  -0.022343185093236   0.019268711864459  -0.060425498123040 1
force H  -0.036594298587237   0.082473084868423   0.063459923712727 1
force C   0.226492425889807   0.028011433724011   0.089467007844359 1
force O  -0.226505518359440   0.092666213327384  -0.024831222205191 1
force O   0.026519450846954  -0.238003471331147   0.037792451101482 1
force Pt  -0.000139693797336   0.000286069083367  -0.261890082202787 0
force Pt   0.000099674375947  -0.000096673598590  -0.256695462712773 0
force Pt   0.000151784942529  -0.000561154523682  -0.236759143603716 0
force Pt   0.000575397454382   0.000699874283333  -0.220532594778067 0
force Pt   0.007677223885292   0.002867155073517  -0.242966619181311 0
force Pt   0.008368557014997  -0.003021628483698  -0.239108967580686 0
force Pt  -0.008556180054627   0.002408256998845  -0.250431378088180 0
force Pt  -0.008516175955388  -0.002604188221310  -0.246252693169922 0
force Pt   0.002974863136753   0.000330247277272   0.291280904165230 1
force Pt   0.002595649070056  -0.000327947291006   0.292888900832566 1
force Pt   0.000095746767705  -0.000414463624034   0.292745114412063 1
force Pt   0.000815835206915   0.000075613823400   0.291940932208430 1
force Pt   0.005220184103677   0.004288927680638  -0.129117896426768 1
force Pt   0.001170053655016  -0.001682628157178  -0.130163275631296 1
force Pt   0.004272963560537   0.003209310809062  -0.140292751852012 1
force Pt   0.003045552452743   0.000325734230339  -0.140367049901501 1
force Pt   0.002539775957912  -0.000010121411565   0.303931211651916 1
force Pt   0.000156398070950  -0.000100320810823   0.300931941997872 1
force Pt   0.002049347872434   0.004085592109064   0.280187280354005 1
force Pt   0.006718184446674   0.004589704595791   0.330811849790428 1

# Energy components:
   Eewald =   -14282.1883763592431933
       EH =   -12746.7234089774065069
     Eloc =    24886.9936244868840731
      Enl =      -15.5012326422443927
      Exc =     -576.1106488369301815
 Exc_core =      324.9917462270603892
       KE =      589.4526219535640621
-------------------------------------
     Etot =    -1819.0856741483135011
       TS =        0.2372074651844451
-------------------------------------
        F =    -1819.3228816134978842

IonicMinimize: Iter:   6  F: -1819.322881613497884  |grad|_K:  6.373e-03  alpha:  3.578e-01  linmin: -3.594e-01  t[s]: 144144.77

#--- Lowdin population analysis ---
# oxidation-state H +0.213 +0.420
# oxidation-state C +0.403
# oxidation-state O -0.304 -0.364
# oxidation-state Pt +0.076 +0.076 +0.075 +0.074 -0.045 -0.045 -0.045 -0.045 +0.005 +0.004 +0.005 +0.003 -0.051 -0.042 -0.041 -0.047 +0.058 +0.034 +0.048 -0.023


-------- Electronic minimization -----------
	FillingsUpdate:  mu: +0.162739141  nElectrons: 338.000000
ElecMinimize: Iter:   0  F: -1816.727712977455212  |grad|_K:  4.644e-04  alpha:  1.000e+00
	FillingsUpdate:  mu: +0.033734839  nElectrons: 338.000000
	SubspaceRotationAdjust: set factor to 0.0475
ElecMinimize: Iter:   1  F: -1818.492728977898423  |grad|_K:  2.911e-04  alpha:  2.100e-01  linmin:  3.979e-02  t[s]: 144866.39
	FillingsUpdate:  mu: -0.203719555  nElectrons: 338.000000
	SubspaceRotationAdjust: set factor to 0.104
ElecMinimize: Iter:   2  F: -1819.109731826116786  |grad|_K:  7.417e-05  alpha:  1.827e-01  linmin: -4.245e-04  t[s]: 145278.91
	FillingsUpdate:  mu: -0.191223948  nElectrons: 338.000000
	SubspaceRotationAdjust: set factor to 0.0862
ElecMinimize: Iter:   3  F: -1819.187687008353350  |grad|_K:  4.700e-05  alpha:  2.935e-01  linmin:  8.389e-04  t[s]: 145694.27
	FillingsUpdate:  mu: -0.190285933  nElectrons: 338.000000
	SubspaceRotationAdjust: set factor to 0.066
ElecMinimize: Iter:   4  F: -1819.204637636917823  |grad|_K:  2.675e-05  alpha:  1.594e-01  linmin: -3.146e-05  t[s]: 146107.31
ElecMinimize: 	Predicted alpha/alphaT>3.000000, increasing alphaT to 4.782730e-01.
	FillingsUpdate:  mu: -0.188320144  nElectrons: 338.000000
	SubspaceRotationAdjust: set factor to 0.0903
ElecMinimize: Iter:   5  F: -1819.224775024493738  |grad|_K:  2.428e-05  alpha:  5.841e-01  linmin:  1.403e-04  t[s]: 146612.60
	FillingsUpdate:  mu: -0.190639504  nElectrons: 338.000000
	SubspaceRotationAdjust: set factor to 0.0734
ElecMinimize: Iter:   6  F: -1819.247370666851339  |grad|_K:  3.064e-05  alpha:  8.080e-01  linmin:  3.708e-04  t[s]: 147021.21
	FillingsUpdate:  mu: -0.189864482  nElectrons: 338.000000
	SubspaceRotationAdjust: set factor to 0.0565
ElecMinimize: Iter:   7  F: -1819.260635265822430  |grad|_K:  3.447e-05  alpha:  3.323e-01  linmin:  4.793e-04  t[s]: 147433.45
	FillingsUpdate:  mu: -0.186837356  nElectrons: 338.000000
	SubspaceRotationAdjust: set factor to 0.0461
ElecMinimize: Iter:   8  F: -1819.283625019126248  |grad|_K:  2.730e-05  alpha:  4.390e-01  linmin:  6.379e-04  t[s]: 147851.72
	FillingsUpdate:  mu: -0.179632857  nElectrons: 338.000000
	SubspaceRotationAdjust: set factor to 0.0603
ElecMinimize: Iter:   9  F: -1819.303508504958472  |grad|_K:  2.643e-05  alpha:  6.140e-01  linmin:  2.340e-04  t[s]: 148267.61
	FillingsUpdate:  mu: -0.190183960  nElectrons: 338.000000
	SubspaceRotationAdjust: set factor to 0.0496
ElecMinimize: Iter:  10  F: -1819.316240836013549  |grad|_K:  1.786e-05  alpha:  4.045e-01  linmin:  3.642e-06  t[s]: 148682.17
	FillingsUpdate:  mu: -0.193089696  nElectrons: 338.000000
	SubspaceRotationAdjust: set factor to 0.0417
ElecMinimize: Iter:  11  F: -1819.321349232162675  |grad|_K:  1.108e-05  alpha:  3.306e-01  linmin:  7.091e-05  t[s]: 149092.73
	FillingsUpdate:  mu: -0.195114025  nElectrons: 338.000000
	SubspaceRotationAdjust: set factor to 0.0416
ElecMinimize: Iter:  12  F: -1819.324097674536006  |grad|_K:  7.464e-06  alpha:  4.648e-01  linmin: -9.561e-05  t[s]: 149505.92
	FillingsUpdate:  mu: -0.196073155  nElectrons: 338.000000
	SubspaceRotationAdjust: set factor to 0.05
ElecMinimize: Iter:  13  F: -1819.325234624705217  |grad|_K:  4.512e-06  alpha:  4.207e-01  linmin:  6.737e-06  t[s]: 149923.18
	FillingsUpdate:  mu: -0.196974797  nElectrons: 338.000000
	SubspaceRotationAdjust: set factor to 0.0621
ElecMinimize: Iter:  14  F: -1819.325668614337928  |grad|_K:  3.246e-06  alpha:  4.416e-01  linmin:  6.810e-06  t[s]: 150335.62
	FillingsUpdate:  mu: -0.197922882  nElectrons: 338.000000
	SubspaceRotationAdjust: set factor to 0.0631
ElecMinimize: Iter:  15  F: -1819.325940737471456  |grad|_K:  2.962e-06  alpha:  5.350e-01  linmin: -5.689e-05  t[s]: 150749.57
	FillingsUpdate:  mu: -0.198442542  nElectrons: 338.000000
	SubspaceRotationAdjust: set factor to 0.0557
ElecMinimize: Iter:  16  F: -1819.326090514487532  |grad|_K:  2.451e-06  alpha:  3.533e-01  linmin:  1.337e-07  t[s]: 151163.01
	FillingsUpdate:  mu: -0.198702236  nElectrons: 338.000000
	SubspaceRotationAdjust: set factor to 0.058
ElecMinimize: Iter:  17  F: -1819.326217053904429  |grad|_K:  1.876e-06  alpha:  4.361e-01  linmin: -3.964e-05  t[s]: 151573.14
	FillingsUpdate:  mu: -0.198374178  nElectrons: 338.000000
	SubspaceRotationAdjust: set factor to 0.0727
ElecMinimize: Iter:  18  F: -1819.326321841158915  |grad|_K:  1.591e-06  alpha:  6.162e-01  linmin: -2.406e-06  t[s]: 151989.55
	FillingsUpdate:  mu: -0.197822977  nElectrons: 338.000000
	SubspaceRotationAdjust: set factor to 0.0869
ElecMinimize: Iter:  19  F: -1819.326398617831501  |grad|_K:  1.479e-06  alpha:  6.279e-01  linmin: -2.167e-06  t[s]: 152404.53
	FillingsUpdate:  mu: -0.197079953  nElectrons: 338.000000
	SubspaceRotationAdjust: set factor to 0.0907
ElecMinimize: Iter:  20  F: -1819.326459851692334  |grad|_K:  1.529e-06  alpha:  5.795e-01  linmin: -3.536e-06  t[s]: 152814.83
	FillingsUpdate:  mu: -0.196496093  nElectrons: 338.000000
	SubspaceRotationAdjust: set factor to 0.0718
ElecMinimize: Iter:  21  F: -1819.326492415963003  |grad|_K:  1.478e-06  alpha:  2.884e-01  linmin:  3.324e-06  t[s]: 153226.94
	FillingsUpdate:  mu: -0.195874095  nElectrons: 338.000000
	SubspaceRotationAdjust: set factor to 0.063
ElecMinimize: Iter:  22  F: -1819.326526866734866  |grad|_K:  9.346e-07  alpha:  3.267e-01  linmin: -1.727e-07  t[s]: 153638.23
	FillingsUpdate:  mu: -0.195601726  nElectrons: 338.000000
	SubspaceRotationAdjust: set factor to 0.0702
ElecMinimize: Iter:  23  F: -1819.326546769844072  |grad|_K:  6.329e-07  alpha:  4.720e-01  linmin: -1.924e-06  t[s]: 154049.77
	FillingsUpdate:  mu: -0.195504863  nElectrons: 338.000000
	SubspaceRotationAdjust: set factor to 0.0837
ElecMinimize: Iter:  24  F: -1819.326556692451959  |grad|_K:  4.915e-07  alpha:  5.132e-01  linmin:  3.021e-07  t[s]: 154463.16
	FillingsUpdate:  mu: -0.195489054  nElectrons: 338.000000
	SubspaceRotationAdjust: set factor to 0.108
ElecMinimize: Iter:  25  F: -1819.326562731526110  |grad|_K:  3.888e-07  alpha:  5.178e-01  linmin:  2.399e-06  t[s]: 154873.94
	FillingsUpdate:  mu: -0.195654004  nElectrons: 338.000000
	SubspaceRotationAdjust: set factor to 0.0996
ElecMinimize: Iter:  26  F: -1819.326566783390490  |grad|_K:  4.495e-07  alpha:  5.553e-01  linmin: -7.437e-06  t[s]: 155285.83
	FillingsUpdate:  mu: -0.195794242  nElectrons: 338.000000
	SubspaceRotationAdjust: set factor to 0.0803
ElecMinimize: Iter:  27  F: -1819.326569099677045  |grad|_K:  4.369e-07  alpha:  2.372e-01  linmin: -2.185e-06  t[s]: 155695.94
	FillingsUpdate:  mu: -0.196026811  nElectrons: 338.000000
	SubspaceRotationAdjust: set factor to 0.0795
ElecMinimize: Iter:  28  F: -1819.326572495203891  |grad|_K:  3.041e-07  alpha:  3.683e-01  linmin: -4.573e-06  t[s]: 156102.71
	FillingsUpdate:  mu: -0.196125335  nElectrons: 338.000000
	SubspaceRotationAdjust: set factor to 0.0906
ElecMinimize: Iter:  29  F: -1819.326574791914481  |grad|_K:  2.430e-07  alpha:  5.149e-01  linmin:  6.836e-06  t[s]: 156512.45
	FillingsUpdate:  mu: -0.196199158  nElectrons: 338.000000
	SubspaceRotationAdjust: set factor to 0.0759
ElecMinimize: Iter:  30  F: -1819.326575791743153  |grad|_K:  2.405e-07  alpha:  3.507e-01  linmin:  3.011e-06  t[s]: 156926.44
	FillingsUpdate:  mu: -0.196267518  nElectrons: 338.000000
	SubspaceRotationAdjust: set factor to 0.0578
ElecMinimize: Iter:  31  F: -1819.326576439783139  |grad|_K:  1.519e-07  alpha:  2.324e-01  linmin: -2.103e-06  t[s]: 157337.79
	FillingsUpdate:  mu: -0.196307787  nElectrons: 338.000000
	SubspaceRotationAdjust: set factor to 0.0816
ElecMinimize: Iter:  32  F: -1819.326576919396757  |grad|_K:  1.018e-07  alpha:  4.305e-01  linmin:  1.772e-06  t[s]: 157754.71
	FillingsUpdate:  mu: -0.196304165  nElectrons: 338.000000
	SubspaceRotationAdjust: set factor to 0.0801
ElecMinimize: Iter:  33  F: -1819.326577147869784  |grad|_K:  9.663e-08  alpha:  4.568e-01  linmin: -1.705e-05  t[s]: 158162.22
	FillingsUpdate:  mu: -0.196289712  nElectrons: 338.000000
	SubspaceRotationAdjust: set factor to 0.0772
ElecMinimize: Iter:  34  F: -1819.326577307571824  |grad|_K:  1.024e-07  alpha:  3.547e-01  linmin:  3.291e-05  t[s]: 158571.83
	FillingsUpdate:  mu: -0.196268098  nElectrons: 338.000000
	SubspaceRotationAdjust: set factor to 0.0815
ElecMinimize: Iter:  35  F: -1819.326577487133136  |grad|_K:  8.151e-08  alpha:  3.556e-01  linmin:  4.826e-05  t[s]: 158982.37
	FillingsUpdate:  mu: -0.196249869  nElectrons: 338.000000
	SubspaceRotationAdjust: set factor to 0.097
ElecMinimize: Iter:  36  F: -1819.326577679202501  |grad|_K:  7.592e-08  alpha:  5.968e-01  linmin: -6.437e-05  t[s]: 159395.28
	FillingsUpdate:  mu: -0.196229477  nElectrons: 338.000000
	SubspaceRotationAdjust: set factor to 0.0909
ElecMinimize: Iter:  37  F: -1819.326577819950444  |grad|_K:  8.103e-08  alpha:  5.040e-01  linmin: -3.193e-06  t[s]: 159806.58
	FillingsUpdate:  mu: -0.196216740  nElectrons: 338.000000
	SubspaceRotationAdjust: set factor to 0.0634
ElecMinimize: Iter:  38  F: -1819.326577884540711  |grad|_K:  5.968e-08  alpha:  2.031e-01  linmin: -3.475e-06  t[s]: 160224.02
	FillingsUpdate:  mu: -0.196204481  nElectrons: 338.000000
	SubspaceRotationAdjust: set factor to 0.0688
ElecMinimize: Iter:  39  F: -1819.326577945501640  |grad|_K:  3.941e-08  alpha:  3.722e-01  linmin:  6.252e-04  t[s]: 160641.57
	FillingsUpdate:  mu: -0.196198954  nElectrons: 338.000000
	SubspaceRotationAdjust: set factor to 0.0798
ElecMinimize: Iter:  40  F: -1819.326577975435839  |grad|_K:  2.822e-08  alpha:  4.247e-01  linmin:  3.165e-04  t[s]: 161056.42
	FillingsUpdate:  mu: -0.196199064  nElectrons: 338.000000
	SubspaceRotationAdjust: set factor to 0.0755
ElecMinimize: Iter:  41  F: -1819.326577987683322  |grad|_K:  2.416e-08  alpha:  3.236e-01  linmin: -8.635e-05  t[s]: 161468.06
	FillingsUpdate:  mu: -0.196201845  nElectrons: 338.000000
	SubspaceRotationAdjust: set factor to 0.0765
ElecMinimize: Iter:  42  F: -1819.326577995275102  |grad|_K:  1.800e-08  alpha:  2.884e-01  linmin:  4.246e-05  t[s]: 161881.53
	FillingsUpdate:  mu: -0.196207339  nElectrons: 338.000000
	SubspaceRotationAdjust: set factor to 0.0806
ElecMinimize: Iter:  43  F: -1819.326578001368262  |grad|_K:  2.375e-08  alpha:  7.883e-01  linmin:  3.989e-03  t[s]: 162293.63
ElecMinimize: Converged (|Delta F|<1.000000e-08 for 2 iters).
Setting wave functions to eigenvectors of Hamiltonian

# Ionic positions in lattice coordinates:
ion H   0.633217889857770   0.711607147600240   0.334375291919148 1
ion H   0.292684154374825   0.458257629545697   0.334722674217326 1
ion C   0.547305695512497   0.549643183299415   0.332231937569408 1
ion O   0.609009006848649   0.341576178245166   0.336938985262527 1
ion O   0.364076233820667   0.617599073019494   0.339182487660112 1
ion Pt   0.000000000000000   0.000000000000000  -0.166660000000000 0
ion Pt   0.000000000000000   0.500000000000000  -0.166660000000000 0
ion Pt   0.500000000000000   0.000000000000000  -0.166660000000000 0
ion Pt   0.500000000000000   0.500000000000000  -0.166660000000000 0
ion Pt   0.250000000000000   0.250000000000000  -0.083330000000000 0
ion Pt   0.250000000000000   0.750000000000000  -0.083330000000000 0
ion Pt   0.750000000000000   0.250000000000000  -0.083330000000000 0
ion Pt   0.750000000000000   0.750000000000000  -0.083330000000000 0
ion Pt   0.000123444723663  -0.000082509604295   0.005871532160724 1
ion Pt   0.000068153069681   0.500059828009435   0.006047252949569 1
ion Pt   0.499947272080212  -0.000025111913063   0.006355590440186 1
ion Pt   0.500119110842975   0.499856532429516   0.006881204402805 1
ion Pt   0.248570417442374   0.249843654944933   0.099418822750701 1
ion Pt   0.249400955079012   0.749982192689682   0.099528557024674 1
ion Pt   0.751252857181060   0.249865276775963   0.099201484961939 1
ion Pt   0.751881630985124   0.750854973905547   0.099308635242562 1
ion Pt   0.000285935736249  -0.000000920054011   0.182250547412925 1
ion Pt   0.000344752013585   0.499815320464928   0.181888167358804 1
ion Pt   0.500066669417712   0.001167841683782   0.180731341199007 1
ion Pt   0.501892891601050   0.502012279663199   0.181577825025547 1


# Forces in Lattice coordinates:
force H   0.138941003814969   0.159989028411240  -0.024454044563574 1
force H   0.082810737552863   0.180081782602374   0.098649493887962 1
force C  -0.189149624566394  -0.100819204620297   0.056026088161535 1
force O  -0.122720497851988   0.052289887619491  -0.003627645032127 1
force O   0.057388996400451  -0.311301983894470  -0.028347645867116 1
force Pt  -0.000207925541360   0.000367451039432  -0.218467823057521 0
force Pt   0.000046756562099  -0.000066266448940  -0.212072385073626 0
force Pt   0.000211777074400  -0.000527326038902  -0.195056371633580 0
force Pt   0.000801505178089   0.000803059237463  -0.176541867225869 0
force Pt   0.009632307229829   0.003494032724851  -0.140448252923563 0
force Pt   0.010081765587615  -0.003513401695143  -0.137587264248967 0
force Pt  -0.008579655583543   0.002713026953512  -0.147909195132667 0
force Pt  -0.008247681439846  -0.002787373929230  -0.143210506667258 0
force Pt   0.001499929693078  -0.000010888979579   0.210341962060013 1
force Pt   0.002017658986447   0.000220724682804   0.214131289907234 1
force Pt  -0.000139588312837   0.000041344151243   0.225490449471181 1
force Pt  -0.000533183140293  -0.000015803964191   0.219448435033631 1
force Pt   0.010940540464778   0.003577224376885  -0.092916750407924 1
force Pt   0.007680004165944  -0.000949005317375  -0.097478532670158 1
force Pt  -0.000705462341648   0.002159165408107  -0.107725007637486 1
force Pt   0.000018174263370   0.001484913100427  -0.108351468166530 1
force Pt   0.001290252224635   0.000041684025288   0.198811067607511 1
force Pt   0.000344487614941   0.000528521506489   0.198738719363403 1
force Pt   0.001311152511427   0.004038163709999   0.160865419043387 1
force Pt   0.004053992990343   0.007418859674117   0.237989259103823 1

# Energy components:
   Eewald =   -14360.5454378392896615
       EH =   -12825.0269314929464599
     Eloc =    25043.7529353527497733
      Enl =      -15.5363630277511522
      Exc =     -576.0293527052675699
 Exc_core =      324.9917404618376509
       KE =      589.3046580056950461
-------------------------------------
     Etot =    -1819.0887512449723999
       TS =        0.2378267563958539
-------------------------------------
        F =    -1819.3265780013682615

IonicMinimize: Iter:   7  F: -1819.326578001368262  |grad|_K:  6.871e-03  alpha:  3.113e-01  linmin: -1.352e-01  t[s]: 162360.74

#--- Lowdin population analysis ---
# oxidation-state H +0.223 +0.416
# oxidation-state C +0.393
# oxidation-state O -0.296 -0.371
# oxidation-state Pt +0.076 +0.076 +0.075 +0.075 -0.045 -0.046 -0.046 -0.045 +0.004 +0.003 +0.004 +0.002 -0.051 -0.041 -0.041 -0.046 +0.058 +0.033 +0.048 -0.022

Atom 5 lies within the margin of 5 bohrs from the truncation boundary.
Expand unit cell, or if absolutely sure, reduce coulomb-truncation-ion-margin.
End date and time: Sun May 26 04:15:13 2019  (Duration: 1-21:08:11.51)
Failed.
--------------------------------------------------------------------------
Initialization of PSM library failed.

  Error: PSM is in the finalized state
--------------------------------------------------------------------------
[node2016][[60615,1],0][btl_openib.c:880:mca_btl_openib_add_procs] could not prepare openib device for use
--------------------------------------------------------------------------
The OpenFabrics (openib) BTL failed to initialize while trying to
allocate some locked memory.  This typically can indicate that the
memlock limits are set too low.  For most HPC installations, the
memlock limits should be set to "unlimited".  The failure occured
here:

  Local host:    node2016
  OMPI source:   btl_openib.c:753
  Function:      ompi_free_list_init_ex_new()
  Device:        qib0
  Memlock limit: 65536

You may need to consult with your system administrator to get this
problem fixed.  This FAQ entry on the Open MPI web site may also be
helpful:

    http://www.open-mpi.org/faq/?category=openfabrics#ib-locked-pages
--------------------------------------------------------------------------

*************** JDFTx 1.4.2 (git hash 74b6e54) ***************

Start date and time: Sun May 26 04:15:13 2019
Executable /home/jfm343/JDFTXDIR/build/jdftx with command-line: -i Solvated.in
Running on hosts (process indices):  node2016.physics.cornell.edu (0)
Divided in process groups (process indices):  0 (0)
Resource initialization completed at t[s]:      0.00
Run totals: 1 processes, 12 threads, 0 GPUs
Could not open file '100_4-Vacuum.ionpos' for reading.
--------------------------------------------------------------------------
MPI_ABORT was invoked on rank 0 in communicator MPI_COMM_WORLD 
with errorcode 1.

NOTE: invoking MPI_ABORT causes Open MPI to kill all MPI processes.
You may or may not see output from other processes, depending on
exactly when Open MPI kills them.
--------------------------------------------------------------------------
