--------------------------------------------------------------------------
Initialization of PSM library failed.

  Error: PSM is in the finalized state
--------------------------------------------------------------------------
--------------------------------------------------------------------------
The OpenFabrics (openib) BTL failed to initialize while trying to
allocate some locked memory.  This typically can indicate that the
memlock limits are set too low.  For most HPC installations, the
memlock limits should be set to "unlimited".  The failure occured
here:

  Local host:    node2002
  OMPI source:   btl_openib.c:753
  Function:      ompi_free_list_init_ex_new()
  Device:        qib0
  Memlock limit: 65536

You may need to consult with your system administrator to get this
problem fixed.  This FAQ entry on the Open MPI web site may also be
helpful:

    http://www.open-mpi.org/faq/?category=openfabrics#ib-locked-pages
--------------------------------------------------------------------------

*************** JDFTx 1.4.2 (git hash 74b6e54) ***************

Start date and time: Sat Jun  1 10:14:07 2019
Executable /home/jfm343/JDFTXDIR/build/jdftx with command-line: -i Solvated.in
Running on hosts (process indices):  node2002.physics.cornell.edu (0)
Divided in process groups (process indices):  0 (0)
Resource initialization completed at t[s]:      0.00
Run totals: 1 processes, 12 threads, 0 GPUs


Input parsed successfully to the following command list (including defaults):

basis kpoint-dependent
coords-type Lattice
core-overlap-check vector
coulomb-interaction Periodic
davidson-band-ratio 1.1
dump End IonicPositions ElecDensity EigStats Ecomponents
dump-name 100_1-Solvated.$VAR
elec-cutoff 20 100
elec-eigen-algo Davidson
elec-ex-corr gga-PBEsol
elec-smearing Fermi 0.01
electronic-minimize  \
	dirUpdateScheme      FletcherReeves \
	linminMethod         DirUpdateRecommended \
	nIterations          200 \
	history              15 \
	knormThreshold       0 \
	energyDiffThreshold  1e-08 \
	nEnergyDiff          2 \
	alphaTstart          1 \
	alphaTmin            1e-10 \
	updateTestStepSize   yes \
	alphaTreduceFactor   0.1 \
	alphaTincreaseFactor 3 \
	nAlphaAdjustMax      3 \
	wolfeEnergy          0.0001 \
	wolfeGradient        0.9 \
	fdTest               no
exchange-regularization WignerSeitzTruncated
fluid NonlinearPCM 298.000000 1.013250
fluid-anion ClO4- 0.2 MeanFieldLJ \
	epsBulk 1 \
	pMol 0 \
	epsInf 1 \
	Pvap 0 \
	sigmaBulk 0 \
	Rvdw 4.55424 \
	Res 0 \
	tauNuc 343133 \
	omegaEl 0.55124 \
	gammaEl 0.257245
fluid-cation Na+ 0.2 MeanFieldLJ \
	epsBulk 1 \
	pMol 0 \
	epsInf 1 \
	Pvap 0 \
	sigmaBulk 0 \
	Rvdw 2.19208 \
	Res 0 \
	tauNuc 343133 \
	omegaEl 0.55124 \
	gammaEl 0.257245
fluid-ex-corr lda-TF lda-PZ
fluid-gummel-loop 10 1.000000e-05
fluid-minimize  \
	dirUpdateScheme      PolakRibiere \
	linminMethod         DirUpdateRecommended \
	nIterations          100 \
	history              15 \
	knormThreshold       1e-11 \
	energyDiffThreshold  0 \
	nEnergyDiff          2 \
	alphaTstart          1 \
	alphaTmin            1e-10 \
	updateTestStepSize   yes \
	alphaTreduceFactor   0.1 \
	alphaTincreaseFactor 3 \
	nAlphaAdjustMax      6 \
	wolfeEnergy          0.0001 \
	wolfeGradient        0.9 \
	fdTest               no
fluid-solvent H2O 55.338 ScalarEOS \
	epsBulk 78.4 \
	pMol 0.92466 \
	epsInf 1.77 \
	Pvap 1.06736e-10 \
	sigmaBulk 4.62e-05 \
	Rvdw 2.61727 \
	Res 1.42 \
	tauNuc 343133 \
	omegaEl 0.55124 \
	gammaEl 0.257245
forces-output-coords Positions
initial-state 100_1-Vacuum.$VAR
ion O   0.677993223886995   0.487805968013166   0.327528098418042 1
ion O   0.428850733095147   0.722136246909868   0.328114086069116 1
ion C   0.499813763204541   0.502336592471020   0.302188070337473 1
ion H   0.412126284782482   0.340670724714160   0.315434948649729 1
ion H   0.727844315900835   0.333655404495097   0.304495253477299 1
ion H   0.303009058815541   0.729358034929469   0.304869201698482 1
ion Pt   0.000000000000000   0.000000000000000  -0.166660000000000 0
ion Pt   0.000000000000000   0.500000000000000  -0.166660000000000 0
ion Pt   0.500000000000000   0.000000000000000  -0.166660000000000 0
ion Pt   0.500000000000000   0.500000000000000  -0.166660000000000 0
ion Pt   0.250000000000000   0.250000000000000  -0.083330000000000 0
ion Pt   0.250000000000000   0.750000000000000  -0.083330000000000 0
ion Pt   0.750000000000000   0.250000000000000  -0.083330000000000 0
ion Pt   0.750000000000000   0.750000000000000  -0.083330000000000 0
ion Pt   0.000168349159567  -0.000315228977955   0.008268373486396 1
ion Pt  -0.000074589435500   0.499772684229130   0.008555311398351 1
ion Pt   0.499820357697225  -0.000070515045629   0.009359273007262 1
ion Pt   0.499909866892362   0.499819293014163   0.009847797832403 1
ion Pt   0.246437145829867   0.247197605677756   0.100486475572994 1
ion Pt   0.247517225089849   0.750620694101298   0.100436044239896 1
ion Pt   0.754091212869190   0.248046215542219   0.100384568350418 1
ion Pt   0.753536350820505   0.749328168970398   0.100285936485393 1
ion Pt  -0.000137363089383  -0.000526688016865   0.185670761001419 1
ion Pt   0.001823393966597   0.500302583324569   0.185195898868161 1
ion Pt   0.502233080775208  -0.002947281865965   0.182352802229354 1
ion Pt   0.499395347018040   0.494668328922555   0.179593954790446 1
ion-species GBRV/$ID_pbesol.uspp
ion-width Ecut
ionic-minimize  \
	dirUpdateScheme      L-BFGS \
	linminMethod         DirUpdateRecommended \
	nIterations          0 \
	history              15 \
	knormThreshold       0.0001 \
	energyDiffThreshold  1e-06 \
	nEnergyDiff          2 \
	alphaTstart          1 \
	alphaTmin            1e-10 \
	updateTestStepSize   yes \
	alphaTreduceFactor   0.1 \
	alphaTincreaseFactor 3 \
	nAlphaAdjustMax      3 \
	wolfeEnergy          0.0001 \
	wolfeGradient        0.9 \
	fdTest               no
kpoint   0.000000000000   0.000000000000   0.000000000000  1.00000000000000
kpoint-folding 4 4 1 
latt-move-scale 1 1 1
latt-scale 1 1 1 
lattice Triclinic 13.7988 10.3727 31.1182 90 90 90
lattice-minimize  \
	dirUpdateScheme      L-BFGS \
	linminMethod         DirUpdateRecommended \
	nIterations          0 \
	history              15 \
	knormThreshold       0 \
	energyDiffThreshold  1e-06 \
	nEnergyDiff          2 \
	alphaTstart          1 \
	alphaTmin            1e-10 \
	updateTestStepSize   yes \
	alphaTreduceFactor   0.1 \
	alphaTincreaseFactor 3 \
	nAlphaAdjustMax      3 \
	wolfeEnergy          0.0001 \
	wolfeGradient        0.9 \
	fdTest               no
lcao-params -1 1e-06 0.01
pcm-variant GLSSA13
spintype no-spin
subspace-rotation-factor 1 yes
symmetries automatic
symmetry-threshold 0.0001



---------- Setting up symmetries ----------

Found 8 point-group symmetries of the bravais lattice
Found 1 space-group symmetries with basis
Applied RMS atom displacement 0 bohrs to make symmetries exact.

---------- Initializing the Grid ----------
R = 
[    13.7988          0          0  ]
[          0    10.3727          0  ]
[          0          0    31.1182  ]
unit cell volume = 4453.99
G =
[   0.455343          0          0  ]
[          0   0.605741          0  ]
[          0          0   0.201914  ]
Minimum fftbox size, Smin = [  64  48  144  ]
Chosen fftbox size, S = [  64  48  144  ]

---------- Initializing tighter grid for wavefunction operations ----------
R = 
[    13.7988          0          0  ]
[          0    10.3727          0  ]
[          0          0    31.1182  ]
unit cell volume = 4453.99
G =
[   0.455343          0          0  ]
[          0   0.605741          0  ]
[          0          0   0.201914  ]
Minimum fftbox size, Smin = [  56  44  128  ]
Chosen fftbox size, S = [  56  48  128  ]

---------- Exchange Correlation functional ----------
Initalized PBEsol GGA exchange.
Initalized PBEsol GGA correlation.

---------- Setting up pseudopotentials ----------
Width of ionic core gaussian charges (only for fluid interactions / plotting) set to 0.397384

Reading pseudopotential file '/home/jfm343/JDFTXDIR/build/pseudopotentials/GBRV/o_pbesol.uspp':
  Title: O.  Created by USPP 7.3.6 on 3-2-2014
  Reference state energy: -15.849885.  6 valence electrons in orbitals:
    |200>  occupation: 2  eigenvalue: -0.873214
    |210>  occupation: 4  eigenvalue: -0.330058
  lMax: 2  lLocal: 2  QijEcut: 6
  5 projectors sampled on a log grid with 511 points:
    l: 0  eig: -0.873214  rCut: 1.25
    l: 0  eig: 0.000000  rCut: 1.25
    l: 1  eig: -0.330058  rCut: 1.25
    l: 1  eig: 0.000000  rCut: 1.25
    l: 2  eig: 1.000000  rCut: 1.25
  Partial core density with radius 0.7
  Transforming core density to a uniform radial grid of dG=0.02 with 1265 points.
  Transforming local potential to a uniform radial grid of dG=0.02 with 1265 points.
  Transforming nonlocal projectors to a uniform radial grid of dG=0.02 with 432 points.
  Transforming density augmentations to a uniform radial grid of dG=0.02 with 1265 points.
  Transforming atomic orbitals to a uniform radial grid of dG=0.02 with 432 points.
  Core radius for overlap checks: 1.25 bohrs.

Reading pseudopotential file '/home/jfm343/JDFTXDIR/build/pseudopotentials/GBRV/c_pbesol.uspp':
  Title: C.  Created by USPP 7.3.6 on 3-2-2014
  Reference state energy: -5.383511.  4 valence electrons in orbitals:
    |200>  occupation: 2  eigenvalue: -0.501126
    |210>  occupation: 2  eigenvalue: -0.192448
  lMax: 1  lLocal: 2  QijEcut: 5
  4 projectors sampled on a log grid with 503 points:
    l: 0  eig: -0.501126  rCut: 1.3
    l: 0  eig: 0.000000  rCut: 1.3
    l: 1  eig: -0.192448  rCut: 1.3
    l: 1  eig: 0.000000  rCut: 1.3
  Partial core density with radius 1.1
  Transforming core density to a uniform radial grid of dG=0.02 with 1265 points.
  Transforming local potential to a uniform radial grid of dG=0.02 with 1265 points.
  Transforming nonlocal projectors to a uniform radial grid of dG=0.02 with 432 points.
  Transforming density augmentations to a uniform radial grid of dG=0.02 with 1265 points.
  Transforming atomic orbitals to a uniform radial grid of dG=0.02 with 432 points.
  Core radius for overlap checks: 1.30 bohrs.

Reading pseudopotential file '/home/jfm343/JDFTXDIR/build/pseudopotentials/GBRV/h_pbesol.uspp':
  Title: H.  Created by USPP 7.3.6 on 22-9-15
  Reference state energy: -0.449841.  1 valence electrons in orbitals:
    |100>  occupation: 1  eigenvalue: -0.232690
  lMax: 0  lLocal: 1  QijEcut: 6
  2 projectors sampled on a log grid with 395 points:
    l: 0  eig: -0.232690  rCut: 1.2
    l: 0  eig: 1.000000  rCut: 1.2
  Transforming local potential to a uniform radial grid of dG=0.02 with 1265 points.
  Transforming nonlocal projectors to a uniform radial grid of dG=0.02 with 432 points.
  Transforming density augmentations to a uniform radial grid of dG=0.02 with 1265 points.
  Transforming atomic orbitals to a uniform radial grid of dG=0.02 with 432 points.
  Core radius for overlap checks: 1.20 bohrs.

Reading pseudopotential file '/home/jfm343/JDFTXDIR/build/pseudopotentials/GBRV/pt_pbesol.uspp':
  Title: Pt.  Created by USPP 7.3.6 on 22-9-15
  Reference state energy: -104.899005.  16 valence electrons in orbitals:
    |510>  occupation: 6  eigenvalue: -2.158847
    |520>  occupation: 9.5  eigenvalue: -0.336311
    |600>  occupation: 0  eigenvalue: -0.320324
    |610>  occupation: 0  eigenvalue: -0.119800
  lMax: 2  lLocal: 3  QijEcut: 5.5
  6 projectors sampled on a log grid with 745 points:
    l: 0  eig: -0.320324  rCut: 2.45
    l: 0  eig: 1.500000  rCut: 2.45
    l: 1  eig: -2.158847  rCut: 1.6
    l: 1  eig: -0.119800  rCut: 1.6
    l: 2  eig: -0.500000  rCut: 1.6
    l: 2  eig: -0.336311  rCut: 1.6
  Partial core density with radius 1.1
  Transforming core density to a uniform radial grid of dG=0.02 with 1265 points.
  Transforming local potential to a uniform radial grid of dG=0.02 with 1265 points.
  Transforming nonlocal projectors to a uniform radial grid of dG=0.02 with 432 points.
  Transforming density augmentations to a uniform radial grid of dG=0.02 with 1265 points.
  Transforming atomic orbitals to a uniform radial grid of dG=0.02 with 432 points.
  Core radius for overlap checks: 2.45 bohrs.

Initialized 4 species with 26 total atoms.

Folded 1 k-points by 4x4x1 to 16 k-points.

---------- Setting up k-points, bands, fillings ----------
Adding inversion symmetry to k-mesh for non-inversion-symmetric unit cell.
Reduced to 10 k-points under symmetry. 
Computing the number of bands and number of electrons
Reading initial fillings from file 100_1-Vacuum.fillings.
nElectrons: 339.000000   nBands: 255   nStates: 10

----- Setting up reduced wavefunction bases (one per k-point) -----
average nbasis = 19028.688 , ideal nbasis = 19027.765

---------- Setting up ewald sum ----------
Optimum gaussian width for ewald sums = 3.813562 bohr.
Real space sum over 693 unit cells with max indices [  4  5  3  ]
Reciprocal space sum over 5655 terms with max indices [  7  6  14  ]

---------- Allocating electronic variables ----------
Initializing wave functions:  reading from '100_1-Vacuum.wfns'
----- createFluidSolver() ----- (Fluid-side solver setup)
   Initializing fluid molecule 'H2O'
     Initializing site 'O'
       Electron density: proportional to exp(-r/0.36935)*erfc((r-0.51523)/0.36823) with norm 6.826
       Charge density: gaussian nuclear width 0.478731 with net site charge 0.826
       Polarizability: cuspless exponential with width 0.32 and norm 3.73
       Hard sphere radius: 2.57003 bohrs
       Positions in reference frame:
         [ +0.000000 +0.000000 +0.000000 ]
     Initializing site 'H'
       Electron density: proportional to exp(-r/0.34641)*erfc((r-0)/0.390882) with norm 0.587
       Charge density: gaussian nuclear width 0.377945 with net site charge -0.413
       Polarizability: cuspless exponential with width 0.39 and norm 3.3
       Positions in reference frame:
         [ +0.000000 -1.441945 +1.122523 ]
         [ +0.000000 +1.441945 +1.122523 ]
     Net charge: 0   dipole magnitude: 0.927204
     Initializing spherical shell mfKernel with radius 2.61727 Bohr
     deltaS corrections:
       site 'O': -7.54299
       site 'H': -6.83917
   Initializing fluid molecule 'Na+'
     Initializing site 'Na'
       Electron density: proportional to exp(-r/0.19682)*erfc((r-0.71491)/0.41314) with norm 8.1383
       Charge density: gaussian nuclear width 0.365347 with net site charge -1
       Hard sphere radius: 1.86327 bohrs
       Positions in reference frame:
         [ +0.000000 +0.000000 +0.000000 ]
     Net charge: -1   dipole magnitude: 0
     Initializing gaussian mfKernel with width: 1.55004 Bohr
     deltaS corrections:
       site 'Na': -22.3555
   Initializing fluid molecule 'ClO4-'
     Initializing site 'Cl'
       Electron density: proportional to exp(-r/0.48793)*erfc((r-0.93371)/0.45657) with norm 6.2308
       Charge density: gaussian nuclear width 0.55117 with net site charge -0.7692
       Hard sphere radius: 4.42196 bohrs
       Positions in reference frame:
         [ +0.000000 +0.000000 +0.000000 ]
     Initializing site 'O'
       Electron density: proportional to exp(-r/0.36013)*erfc((r-0.51636)/0.37371) with norm 6.4423
       Charge density: gaussian nuclear width 0.478731 with net site charge 0.4423
       Positions in reference frame:
         [ +1.705286 +1.705286 +1.705286 ]
         [ +1.705286 -1.705286 -1.705286 ]
         [ -1.705286 +1.705286 -1.705286 ]
         [ -1.705286 -1.705286 +1.705286 ]
     Net charge: 1   dipole magnitude: 0
     Initializing gaussian mfKernel with width: 3.22033 Bohr
     deltaS corrections:
       site 'Cl': -87.0374
       site 'O': 12.0842

Correction to mu due to finite nuclear width = -0.075518
   Cavity determined by nc: 0.001 and sigma: 0.6
   Effective cavity tension: 9.5e-06 Eh/bohr^2 to account for cavitation and dispersion.
   Nonlinear dielectric with epsBulk = 78.4 and epsInf = 1.77 with density Nmol = 0.0049383 of dipoles pMol = 0.92466 at T = 298 K.
   Nonlinear ions with screening length = 12.843 bohrs and Z = 1 at T = 298 K.


---- Citations for features of the code used in this run ----

   Software package:
      R. Sundararaman, K. Letchworth-Weaver, K.A. Schwarz, D. Gunceler, Y. Ozhabes and T.A. Arias, 'JDFTx: software for joint density-functional theory', SoftwareX 6, 278 (2017)

   gga-PBEsol exchange-correlation functional:
      J.P. Perdew et al., Phys. Rev. Lett. 100, 136406 (2008)

   Pseudopotentials:
      KF Garrity, JW Bennett, KM Rabe and D Vanderbilt, Comput. Mater. Sci. 81, 446 (2014)

   Linear/nonlinear dielectric/ionic fluid model with effective cavity tension:
      D. Gunceler, K. Letchworth-Weaver, R. Sundararaman, K.A. Schwarz and T.A. Arias, Modelling Simul. Mater. Sci. Eng. 21, 074005 (2013)

   Total energy minimization with Auxiliary Hamiltonian:
      C. Freysoldt, S. Boeck, and J. Neugebauer, Phys. Rev. B 79, 241103(R) (2009)

This list may not be complete. Please suggest additional citations or
report any other bugs at https://github.com/shankar1729/jdftx/issues

Initialization completed successfully at t[s]:     96.21

Initializing state of NonlinearPCM using a similar LinearPCM: 	Linear fluid (dielectric constant: 78.4, screening length: 12.843 Bohr) occupying 0.346570 of unit cell:	Completed after 43 iterations at t[s]:    106.47

-------- Electron <-> Fluid self-consistency loop -----------

---------------------- Fluid Minimization # 1 -----------------------
FluidMinimize: Iter:   0  F: -0.002361590575611  |grad|_K:  3.619e-05  alpha:  1.000e+00
FluidMinimize: Iter:   1  F: -0.002802851948329  |grad|_K:  2.347e-05  alpha:  4.734e-01  linmin:  6.641e-02  cgtest: -1.469e-01  t[s]:    108.48
FluidMinimize: Iter:   2  F: -0.002954645473567  |grad|_K:  1.629e-05  alpha:  3.579e-01  linmin: -6.305e-03  cgtest:  5.568e-02  t[s]:    108.78
FluidMinimize: Iter:   3  F: -0.003057272475114  |grad|_K:  1.275e-05  alpha:  4.336e-01  linmin: -2.693e-03  cgtest: -1.480e-01  t[s]:    109.08
FluidMinimize: Iter:   4  F: -0.003123421796775  |grad|_K:  1.183e-05  alpha:  4.572e-01  linmin: -3.062e-03  cgtest: -4.642e-02  t[s]:    109.39
FluidMinimize: Iter:   5  F: -0.003187731166707  |grad|_K:  1.143e-05  alpha:  5.151e-01  linmin: -1.594e-03  cgtest: -6.061e-02  t[s]:    109.69
FluidMinimize: Iter:   6  F: -0.003247913960247  |grad|_K:  1.146e-05  alpha:  5.175e-01  linmin: -5.919e-03  cgtest: -4.210e-02  t[s]:    110.00
FluidMinimize: Iter:   7  F: -0.003300615819019  |grad|_K:  7.256e-05  alpha:  1.004e+00  linmin:  1.171e-01  cgtest: -1.669e-01  t[s]:    110.32
FluidMinimize: 	Bad step direction: g.d > 0.
FluidMinimize: 	Undoing step.
FluidMinimize: 	Step failed: resetting search direction.
FluidMinimize: Iter:   8  F: -0.003300615819019  |grad|_K:  7.256e-05  alpha:  0.000e+00
FluidMinimize: 	Step increased F by 4.110377e-04, reducing alpha to 3.942662e-02.
FluidMinimize: Iter:   9  F: -0.003380705486800  |grad|_K:  3.632e-05  alpha:  3.943e-02  linmin:  4.866e-02  cgtest: -2.881e-01  t[s]:    110.96
FluidMinimize: 	Predicted alpha/alphaT>3.000000, increasing alphaT to 1.182799e-01.
FluidMinimize: 	Predicted alpha/alphaT>3.000000, increasing alphaT to 3.548396e-01.
FluidMinimize: Iter:  10  F: -0.003476164590771  |grad|_K:  3.989e-05  alpha:  5.339e-02  linmin: -3.906e-01  cgtest:  9.589e-01  t[s]:    111.54
FluidMinimize: 	Step increased F by 3.101573e-04, reducing alpha to 9.841618e-03.
FluidMinimize: Iter:  11  F: -0.003506552490098  |grad|_K:  3.976e-05  alpha:  9.842e-03  linmin: -2.022e-01  cgtest:  9.939e-01  t[s]:    112.01
FluidMinimize: 	Predicted alpha/alphaT>3.000000, increasing alphaT to 2.952485e-02.
FluidMinimize: 	Predicted alpha/alphaT>3.000000, increasing alphaT to 8.857456e-02.
FluidMinimize: Iter:  12  F: -0.003574668177411  |grad|_K:  3.508e-05  alpha:  2.620e-02  linmin: -1.431e-01  cgtest:  8.730e-01  t[s]:    112.60
FluidMinimize: 	Predicted alpha/alphaT>3.000000, increasing alphaT to 7.859593e-02.
FluidMinimize: Iter:  13  F: -0.003641157074521  |grad|_K:  3.420e-05  alpha:  3.550e-02  linmin: -1.230e-01  cgtest:  5.477e-01  t[s]:    113.03
FluidMinimize: 	Predicted alpha/alphaT>3.000000, increasing alphaT to 1.065042e-01.
FluidMinimize: Iter:  14  F: -0.003774298374974  |grad|_K:  1.583e-04  alpha:  1.106e-01  linmin:  5.136e-02  cgtest:  2.073e-03  t[s]:    113.47
FluidMinimize: 	Bad step direction: g.d > 0.
FluidMinimize: 	Undoing step.
FluidMinimize: 	Step failed: resetting search direction.
FluidMinimize: Iter:  15  F: -0.003774298374974  |grad|_K:  1.583e-04  alpha:  0.000e+00
FluidMinimize: 	Step increased F by 3.146696e-04, reducing alpha to 5.042495e-03.
FluidMinimize: Iter:  16  F: -0.003862169078108  |grad|_K:  3.531e-05  alpha:  5.042e-03  linmin:  5.512e-03  cgtest: -2.767e-02  t[s]:    114.10
FluidMinimize: 	Predicted alpha/alphaT>3.000000, increasing alphaT to 1.512748e-02.
FluidMinimize: 	Predicted alpha/alphaT>3.000000, increasing alphaT to 4.538245e-02.
FluidMinimize: Iter:  17  F: -0.003902400672348  |grad|_K:  5.303e-05  alpha:  2.853e-02  linmin: -9.128e-03  cgtest:  2.046e-02  t[s]:    114.69
FluidMinimize: Iter:  18  F: -0.003949001713990  |grad|_K:  5.879e-05  alpha:  1.338e-02  linmin: -2.465e-02  cgtest:  3.400e-01  t[s]:    114.99
FluidMinimize: Iter:  19  F: -0.004040963221516  |grad|_K:  3.466e-05  alpha:  2.291e-02  linmin: -1.276e-01  cgtest:  7.873e-02  t[s]:    115.31
FluidMinimize: Iter:  20  F: -0.004076806195433  |grad|_K:  1.125e-04  alpha:  3.879e-02  linmin:  7.045e-02  cgtest: -3.334e-01  t[s]:    115.60
FluidMinimize: 	Bad step direction: g.d > 0.
FluidMinimize: 	Undoing step.
FluidMinimize: 	Step failed: resetting search direction.
FluidMinimize: Iter:  21  F: -0.004076806195433  |grad|_K:  1.125e-04  alpha:  0.000e+00
FluidMinimize: 	Step increased F by 5.175841e-05, reducing alpha to 1.502011e-03.
FluidMinimize: Iter:  22  F: -0.004102102533052  |grad|_K:  6.163e-05  alpha:  1.502e-03  linmin: -1.416e-01  cgtest:  9.660e-01  t[s]:    116.25
FluidMinimize: Encountered beta<0, resetting CG.
FluidMinimize: 	Predicted alpha/alphaT>3.000000, increasing alphaT to 4.506034e-03.
FluidMinimize: Iter:  23  F: -0.004120678265963  |grad|_K:  2.717e-05  alpha:  5.378e-03  linmin: -2.954e-02  cgtest:  2.543e-01  t[s]:    116.69
FluidMinimize: 	Predicted alpha/alphaT>3.000000, increasing alphaT to 1.613340e-02.
FluidMinimize: Iter:  24  F: -0.004138068780435  |grad|_K:  4.465e-05  alpha:  2.411e-02  linmin: -3.696e-02  cgtest:  3.067e-02  t[s]:    117.14
FluidMinimize: Iter:  25  F: -0.004190947243307  |grad|_K:  1.244e-04  alpha:  3.376e-02  linmin:  4.853e-02  cgtest: -4.130e-01  t[s]:    117.44
FluidMinimize: Iter:  26  F: -0.004190950982866  |grad|_K:  1.244e-04  alpha:  9.755e-07  linmin: -9.033e-03  cgtest:  1.000e+00  t[s]:    117.75
FluidMinimize: 	Predicted alpha/alphaT>3.000000, increasing alphaT to 2.926563e-06.
FluidMinimize: 	Predicted alpha/alphaT>3.000000, increasing alphaT to 8.779689e-06.
FluidMinimize: 	Predicted alpha/alphaT>3.000000, increasing alphaT to 2.633907e-05.
FluidMinimize: 	Predicted alpha/alphaT>3.000000, increasing alphaT to 7.901720e-05.
FluidMinimize: 	Predicted alpha/alphaT>3.000000, increasing alphaT to 2.370516e-04.
FluidMinimize: 	Predicted alpha/alphaT>3.000000, increasing alphaT to 7.111548e-04.
FluidMinimize: Iter:  27  F: -0.004231368914132  |grad|_K:  4.101e-05  alpha:  2.535e-03  linmin: -1.363e-01  cgtest:  7.380e-01  t[s]:    118.72
FluidMinimize: Encountered beta<0, resetting CG.
FluidMinimize: 	Predicted alpha/alphaT>3.000000, increasing alphaT to 7.604270e-03.
FluidMinimize: Iter:  28  F: -0.004251976092231  |grad|_K:  2.650e-05  alpha:  1.287e-02  linmin: -7.829e-02  cgtest:  2.526e-01  t[s]:    119.18
FluidMinimize: Iter:  29  F: -0.004266475968966  |grad|_K:  5.333e-05  alpha:  2.462e-02  linmin:  3.546e-02  cgtest: -1.895e-01  t[s]:    119.48
FluidMinimize: Iter:  30  F: -0.004273920466498  |grad|_K:  6.023e-05  alpha:  3.208e-03  linmin: -3.268e-02  cgtest:  9.422e-01  t[s]:    119.80
FluidMinimize: Iter:  31  F: -0.004292742244192  |grad|_K:  3.143e-05  alpha:  5.300e-03  linmin: -5.180e-02  cgtest:  1.187e-01  t[s]:    120.10
FluidMinimize: Iter:  32  F: -0.004304359746429  |grad|_K:  3.040e-05  alpha:  1.123e-02  linmin: -5.501e-02  cgtest: -1.423e-02  t[s]:    120.41
FluidMinimize: 	Predicted alpha/alphaT>3.000000, increasing alphaT to 3.369124e-02.
FluidMinimize: Iter:  33  F: -0.004333130962327  |grad|_K:  4.538e-05  alpha:  2.942e-02  linmin:  1.083e-02  cgtest: -2.179e-01  t[s]:    120.83
FluidMinimize: Iter:  34  F: -0.004360986406121  |grad|_K:  6.332e-05  alpha:  1.328e-02  linmin: -1.758e-02  cgtest:  9.191e-01  t[s]:    121.14
FluidMinimize: Iter:  35  F: -0.004402167351950  |grad|_K:  4.089e-05  alpha:  1.128e-02  linmin: -2.072e-02  cgtest: -6.694e-02  t[s]:    121.46
FluidMinimize: Iter:  36  F: -0.004426519741538  |grad|_K:  4.221e-05  alpha:  1.582e-02  linmin:  2.523e-02  cgtest: -3.004e-01  t[s]:    121.78
FluidMinimize: Iter:  37  F: -0.004435744125555  |grad|_K:  3.660e-05  alpha:  5.798e-03  linmin: -1.596e-02  cgtest:  6.133e-01  t[s]:    122.09
FluidMinimize: Iter:  38  F: -0.004449516611781  |grad|_K:  3.440e-05  alpha:  1.069e-02  linmin: -3.523e-02  cgtest:  3.887e-02  t[s]:    122.42
FluidMinimize: Iter:  39  F: -0.004463776805138  |grad|_K:  3.180e-05  alpha:  1.220e-02  linmin: -1.915e-02  cgtest: -1.659e-01  t[s]:    122.71
FluidMinimize: Iter:  40  F: -0.004478697409295  |grad|_K:  3.944e-05  alpha:  1.594e-02  linmin:  1.103e-02  cgtest: -3.851e-02  t[s]:    123.02
FluidMinimize: Iter:  41  F: -0.004507142498263  |grad|_K:  8.468e-05  alpha:  2.649e-02  linmin:  1.770e-02  cgtest:  6.446e-01  t[s]:    123.33
FluidMinimize: Iter:  42  F: -0.004535846034830  |grad|_K:  4.260e-05  alpha:  5.057e-03  linmin: -1.335e-02  cgtest:  5.479e-01  t[s]:    123.65
FluidMinimize: Encountered beta<0, resetting CG.
FluidMinimize: Iter:  43  F: -0.004552183729076  |grad|_K:  2.669e-05  alpha:  9.645e-03  linmin: -2.285e-02  cgtest:  1.757e-01  t[s]:    123.96
FluidMinimize: Iter:  44  F: -0.004562754424723  |grad|_K:  3.207e-05  alpha:  1.636e-02  linmin:  2.406e-02  cgtest: -2.402e-01  t[s]:    124.27
FluidMinimize: Iter:  45  F: -0.004568856896426  |grad|_K:  3.156e-05  alpha:  7.185e-03  linmin: -1.169e-02  cgtest:  4.844e-01  t[s]:    124.59
FluidMinimize: Iter:  46  F: -0.004580350668532  |grad|_K:  2.438e-05  alpha:  1.214e-02  linmin: -3.362e-02  cgtest: -7.900e-02  t[s]:    124.90
FluidMinimize: Iter:  47  F: -0.004595399370485  |grad|_K:  3.788e-05  alpha:  2.765e-02  linmin:  1.614e-02  cgtest: -3.219e-01  t[s]:    125.20
FluidMinimize: Iter:  48  F: -0.004600954125526  |grad|_K:  3.388e-05  alpha:  3.968e-03  linmin: -2.858e-02  cgtest:  7.857e-01  t[s]:    125.52
FluidMinimize: Iter:  49  F: -0.004611533790837  |grad|_K:  2.488e-05  alpha:  9.657e-03  linmin: -1.911e-02  cgtest:  4.468e-02  t[s]:    125.81
FluidMinimize: Iter:  50  F: -0.004618366081097  |grad|_K:  2.309e-05  alpha:  1.154e-02  linmin: -6.018e-03  cgtest: -1.616e-01  t[s]:    126.13
FluidMinimize: Iter:  51  F: -0.004623256973655  |grad|_K:  2.407e-05  alpha:  1.003e-02  linmin:  6.440e-03  cgtest:  5.835e-02  t[s]:    126.42
FluidMinimize: Converged (|Delta F|<1.000000e-05 for 2 iters).

Fluid minimization # 1 changed total free energy by -2.261666e-03 at t[s]:    126.58

-------------------- Electronic Minimization # 1 ---------------------
	FillingsUpdate:  mu: -0.180069990  nElectrons: 339.000000
ElecMinimize: Iter:   0  F: -1819.944386941571338  |grad|_K:  1.648e-05  alpha:  1.000e+00
	FillingsUpdate:  mu: -0.177268990  nElectrons: 339.000000
	SubspaceRotationAdjust: set factor to 0.672
ElecMinimize: Iter:   1  F: -1819.944664589178501  |grad|_K:  7.927e-06  alpha:  2.116e-02  linmin:  9.222e-06  t[s]:    727.70
ElecMinimize: 	Predicted alpha/alphaT>3.000000, increasing alphaT to 6.348070e-02.
ElecMinimize: 	Predicted alpha/alphaT>3.000000, increasing alphaT to 1.904421e-01.
	FillingsUpdate:  mu: -0.171822767  nElectrons: 339.000000
	SubspaceRotationAdjust: set factor to 0.484
ElecMinimize: Iter:   2  F: -1819.945756166902356  |grad|_K:  6.371e-06  alpha:  3.560e-01  linmin: -3.579e-06  t[s]:   1348.18
	FillingsUpdate:  mu: -0.171232776  nElectrons: 339.000000
	SubspaceRotationAdjust: set factor to 0.28
ElecMinimize: Iter:   3  F: -1819.946023791644166  |grad|_K:  7.774e-06  alpha:  1.326e-01  linmin:  2.383e-07  t[s]:   1770.77
	FillingsUpdate:  mu: -0.174240127  nElectrons: 339.000000
	SubspaceRotationAdjust: set factor to 0.218
ElecMinimize: Iter:   4  F: -1819.946246393750243  |grad|_K:  3.227e-06  alpha:  7.549e-02  linmin: -3.674e-08  t[s]:   2193.33
ElecMinimize: 	Predicted alpha/alphaT>3.000000, increasing alphaT to 2.264668e-01.
	FillingsUpdate:  mu: -0.172157554  nElectrons: 339.000000
	SubspaceRotationAdjust: set factor to 0.18
ElecMinimize: Iter:   5  F: -1819.946397349398922  |grad|_K:  2.266e-06  alpha:  2.966e-01  linmin: -3.382e-07  t[s]:   2712.76
	FillingsUpdate:  mu: -0.171114732  nElectrons: 339.000000
	SubspaceRotationAdjust: set factor to 0.145
ElecMinimize: Iter:   6  F: -1819.946439114513396  |grad|_K:  1.916e-06  alpha:  1.664e-01  linmin:  5.215e-08  t[s]:   3134.36
	FillingsUpdate:  mu: -0.171973126  nElectrons: 339.000000
	SubspaceRotationAdjust: set factor to 0.21
ElecMinimize: Iter:   7  F: -1819.946483440263137  |grad|_K:  1.040e-06  alpha:  2.472e-01  linmin: -1.437e-07  t[s]:   3553.98
	FillingsUpdate:  mu: -0.172298273  nElectrons: 339.000000
	SubspaceRotationAdjust: set factor to 0.142
ElecMinimize: Iter:   8  F: -1819.946500635029224  |grad|_K:  1.213e-06  alpha:  3.252e-01  linmin: -3.635e-08  t[s]:   3970.37
	FillingsUpdate:  mu: -0.171702469  nElectrons: 339.000000
	SubspaceRotationAdjust: set factor to 0.124
	SubspaceRotationAdjust: resetting CG because factor has changed by 0.12376
ElecMinimize: 	State modified externally: resetting search direction.
ElecMinimize: Iter:   9  F: -1819.946511570170969  |grad|_K:  6.806e-07  alpha:  1.521e-01
	FillingsUpdate:  mu: -0.171856466  nElectrons: 339.000000
	SubspaceRotationAdjust: set factor to 0.105
ElecMinimize: Iter:  10  F: -1819.946519017071523  |grad|_K:  4.269e-07  alpha:  3.291e-01  linmin: -5.059e-07  t[s]:   4965.42
	FillingsUpdate:  mu: -0.171615364  nElectrons: 339.000000
	SubspaceRotationAdjust: set factor to 0.0811
ElecMinimize: Iter:  11  F: -1819.946522318004554  |grad|_K:  4.339e-07  alpha:  3.708e-01  linmin: -9.056e-09  t[s]:   5386.26
ElecMinimize: Converged (|Delta F|<1.000000e-05 for 2 iters).
Setting wave functions to eigenvectors of Hamiltonian

Electronic minimization # 1 changed total free energy by -2.135376e-03 at t[s]:   5404.62

---------------------- Fluid Minimization # 2 -----------------------
FluidMinimize: Iter:   0  F: -0.009703848831428  |grad|_K:  1.494e-04  alpha:  1.000e+00
FluidMinimize: 	Test step failed with F = inf, reducing alphaT to 1.000000e-01.
FluidMinimize: Iter:   1  F: -0.009704169082734  |grad|_K:  1.491e-04  alpha:  8.120e-06  linmin: -1.841e-01  cgtest:  1.000e+00  t[s]:   5405.24
FluidMinimize: Encountered beta<0, resetting CG.
FluidMinimize: 	Predicted alpha/alphaT>3.000000, increasing alphaT to 2.436025e-05.
FluidMinimize: 	Predicted alpha/alphaT>3.000000, increasing alphaT to 7.308074e-05.
FluidMinimize: 	Predicted alpha/alphaT>3.000000, increasing alphaT to 2.192422e-04.
FluidMinimize: 	Predicted alpha/alphaT>3.000000, increasing alphaT to 6.577267e-04.
FluidMinimize: 	Predicted alpha/alphaT>3.000000, increasing alphaT to 1.973180e-03.
FluidMinimize: Iter:   2  F: -0.009785849895817  |grad|_K:  1.883e-04  alpha:  4.909e-03  linmin:  3.926e-02  cgtest: -2.330e-01  t[s]:   5406.22
FluidMinimize: Iter:   3  F: -0.009819333084678  |grad|_K:  1.725e-04  alpha:  1.385e-03  linmin: -1.406e-02  cgtest:  8.494e-01  t[s]:   5406.53
FluidMinimize: Iter:   4  F: -0.009870757721465  |grad|_K:  8.046e-05  alpha:  1.879e-03  linmin: -3.335e-02  cgtest:  1.662e-01  t[s]:   5406.84
FluidMinimize: Iter:   5  F: -0.009891686635924  |grad|_K:  8.009e-05  alpha:  3.317e-03  linmin: -1.662e-02  cgtest:  1.540e-02  t[s]:   5407.15
FluidMinimize: 	Predicted alpha/alphaT>3.000000, increasing alphaT to 9.949650e-03.
FluidMinimize: Iter:   6  F: -0.010013870865678  |grad|_K:  1.030e-04  alpha:  2.053e-02  linmin:  7.710e-03  cgtest: -4.782e-01  t[s]:   5407.60
FluidMinimize: Iter:   7  F: -0.010031584639670  |grad|_K:  7.082e-05  alpha:  1.686e-03  linmin: -1.494e-02  cgtest:  7.205e-01  t[s]:   5407.92
FluidMinimize: Encountered beta<0, resetting CG.
FluidMinimize: 	Predicted alpha/alphaT>3.000000, increasing alphaT to 5.056750e-03.
FluidMinimize: Iter:   8  F: -0.010058776712227  |grad|_K:  6.097e-05  alpha:  6.041e-03  linmin: -1.455e-02  cgtest:  6.765e-02  t[s]:   5408.37
FluidMinimize: Iter:   9  F: -0.010079503682457  |grad|_K:  5.804e-05  alpha:  5.972e-03  linmin:  1.868e-02  cgtest: -1.796e-01  t[s]:   5408.67
FluidMinimize: Iter:  10  F: -0.010092362275737  |grad|_K:  7.141e-05  alpha:  4.635e-03  linmin:  2.732e-03  cgtest:  2.032e-01  t[s]:   5408.97
FluidMinimize: Iter:  11  F: -0.010113851427984  |grad|_K:  5.214e-05  alpha:  4.792e-03  linmin: -1.487e-02  cgtest: -6.536e-02  t[s]:   5409.27
FluidMinimize: 	Predicted alpha/alphaT>3.000000, increasing alphaT to 1.437491e-02.
FluidMinimize: Iter:  12  F: -0.010157532564022  |grad|_K:  7.266e-05  alpha:  1.751e-02  linmin:  8.542e-03  cgtest: -2.465e-01  t[s]:   5409.73
FluidMinimize: Iter:  13  F: -0.010185978557208  |grad|_K:  7.810e-05  alpha:  6.394e-03  linmin: -4.533e-03  cgtest:  3.501e-01  t[s]:   5410.04
FluidMinimize: Iter:  14  F: -0.010205408404089  |grad|_K:  7.194e-05  alpha:  3.566e-03  linmin:  8.527e-04  cgtest: -6.117e-02  t[s]:   5410.35
FluidMinimize: Iter:  15  F: -0.010231575319503  |grad|_K:  4.525e-05  alpha:  5.933e-03  linmin:  1.124e-02  cgtest: -9.135e-02  t[s]:   5410.66
FluidMinimize: Iter:  16  F: -0.010242968979467  |grad|_K:  5.278e-05  alpha:  6.914e-03  linmin:  3.344e-03  cgtest:  1.201e-01  t[s]:   5410.97
FluidMinimize: Iter:  17  F: -0.010255648158958  |grad|_K:  6.184e-05  alpha:  5.337e-03  linmin: -9.134e-04  cgtest:  1.443e-02  t[s]:   5411.28
FluidMinimize: Iter:  18  F: -0.010276123749269  |grad|_K:  5.268e-05  alpha:  5.979e-03  linmin: -4.763e-03  cgtest: -6.314e-02  t[s]:   5411.59
FluidMinimize: Iter:  19  F: -0.010286391682694  |grad|_K:  3.694e-05  alpha:  3.940e-03  linmin: -2.113e-04  cgtest: -1.316e-03  t[s]:   5411.90
FluidMinimize: Iter:  20  F: -0.010297022380409  |grad|_K:  5.876e-05  alpha:  8.710e-03  linmin: -1.556e-03  cgtest:  6.952e-02  t[s]:   5412.22
FluidMinimize: Iter:  21  F: -0.010311421512537  |grad|_K:  5.061e-05  alpha:  4.773e-03  linmin:  1.161e-03  cgtest: -5.728e-02  t[s]:   5412.51
FluidMinimize: Iter:  22  F: -0.010326642935190  |grad|_K:  5.904e-05  alpha:  6.733e-03  linmin: -2.363e-03  cgtest:  3.810e-02  t[s]:   5412.85
FluidMinimize: Iter:  23  F: -0.010343734709118  |grad|_K:  4.759e-05  alpha:  5.386e-03  linmin:  1.035e-03  cgtest: -1.132e-01  t[s]:   5413.16
FluidMinimize: Iter:  24  F: -0.010352911806298  |grad|_K:  4.038e-05  alpha:  4.651e-03  linmin: -1.001e-03  cgtest:  2.839e-02  t[s]:   5413.47
FluidMinimize: Iter:  25  F: -0.010360087233980  |grad|_K:  3.835e-05  alpha:  4.916e-03  linmin: -2.917e-03  cgtest: -1.923e-02  t[s]:   5413.79
FluidMinimize: Converged (|Delta F|<1.000000e-05 for 2 iters).

Fluid minimization # 2 changed total free energy by -6.562384e-04 at t[s]:   5413.96

-------------------- Electronic Minimization # 2 ---------------------
	FillingsUpdate:  mu: -0.178873431  nElectrons: 339.000000
ElecMinimize: Iter:   0  F: -1819.944208568081649  |grad|_K:  1.858e-05  alpha:  1.000e+00
	FillingsUpdate:  mu: -0.177013429  nElectrons: 339.000000
	SubspaceRotationAdjust: set factor to 0.189
ElecMinimize: Iter:   1  F: -1819.947153350288545  |grad|_K:  2.760e-06  alpha:  1.749e-01  linmin:  5.029e-04  t[s]:   6007.02
	FillingsUpdate:  mu: -0.175876829  nElectrons: 339.000000
	SubspaceRotationAdjust: set factor to 0.231
ElecMinimize: Iter:   2  F: -1819.947311334689402  |grad|_K:  1.565e-06  alpha:  4.253e-01  linmin:  5.061e-05  t[s]:   6419.19
	FillingsUpdate:  mu: -0.174656586  nElectrons: 339.000000
	SubspaceRotationAdjust: set factor to 0.189
ElecMinimize: Iter:   3  F: -1819.947375457495809  |grad|_K:  1.525e-06  alpha:  5.366e-01  linmin: -1.262e-05  t[s]:   6838.37
	FillingsUpdate:  mu: -0.174940490  nElectrons: 339.000000
	SubspaceRotationAdjust: set factor to 0.143
ElecMinimize: Iter:   4  F: -1819.947395107529246  |grad|_K:  1.428e-06  alpha:  1.728e-01  linmin: -1.728e-06  t[s]:   7257.87
	FillingsUpdate:  mu: -0.174328156  nElectrons: 339.000000
	SubspaceRotationAdjust: set factor to 0.202
ElecMinimize: Iter:   5  F: -1819.947428354524163  |grad|_K:  8.848e-07  alpha:  3.337e-01  linmin: -1.020e-05  t[s]:   7675.81
	FillingsUpdate:  mu: -0.173748313  nElectrons: 339.000000
	SubspaceRotationAdjust: set factor to 0.125
ElecMinimize: Iter:   6  F: -1819.947446157344984  |grad|_K:  1.231e-06  alpha:  4.649e-01  linmin: -6.033e-06  t[s]:   8095.46
	FillingsUpdate:  mu: -0.174014535  nElectrons: 339.000000
	SubspaceRotationAdjust: set factor to 0.103
ElecMinimize: Iter:   7  F: -1819.947457222702951  |grad|_K:  6.656e-07  alpha:  1.493e-01  linmin: -2.407e-06  t[s]:   8513.02
ElecMinimize: 	Predicted alpha/alphaT>3.000000, increasing alphaT to 4.478946e-01.
	FillingsUpdate:  mu: -0.174125112  nElectrons: 339.000000
	SubspaceRotationAdjust: set factor to 0.121
ElecMinimize: Iter:   8  F: -1819.947468612850344  |grad|_K:  6.168e-07  alpha:  5.262e-01  linmin: -1.972e-06  t[s]:   9031.10
	FillingsUpdate:  mu: -0.173851837  nElectrons: 339.000000
	SubspaceRotationAdjust: set factor to 0.0926
ElecMinimize: Iter:   9  F: -1819.947473348725680  |grad|_K:  4.648e-07  alpha:  2.548e-01  linmin:  9.912e-07  t[s]:   9451.83
	FillingsUpdate:  mu: -0.173827888  nElectrons: 339.000000
	SubspaceRotationAdjust: set factor to 0.121
ElecMinimize: Iter:  10  F: -1819.947477502836819  |grad|_K:  3.027e-07  alpha:  3.937e-01  linmin: -2.074e-07  t[s]:   9873.32
ElecMinimize: Converged (|Delta F|<1.000000e-05 for 2 iters).
Setting wave functions to eigenvectors of Hamiltonian

Electronic minimization # 2 changed total free energy by -2.989464e-04 at t[s]:   9891.49

---------------------- Fluid Minimization # 3 -----------------------
FluidMinimize: Iter:   0  F: -0.012904256118522  |grad|_K:  1.526e-04  alpha:  1.000e+00
FluidMinimize: 	Test step failed with F = inf, reducing alphaT to 1.000000e-01.
FluidMinimize: Iter:   1  F: -0.012904351996538  |grad|_K:  1.525e-04  alpha:  2.328e-06  linmin: -2.095e-01  cgtest:  1.000e+00  t[s]:   9892.12
FluidMinimize: Encountered beta<0, resetting CG.
FluidMinimize: 	Predicted alpha/alphaT>3.000000, increasing alphaT to 6.982954e-06.
FluidMinimize: 	Predicted alpha/alphaT>3.000000, increasing alphaT to 2.094886e-05.
FluidMinimize: 	Predicted alpha/alphaT>3.000000, increasing alphaT to 6.284659e-05.
FluidMinimize: 	Predicted alpha/alphaT>3.000000, increasing alphaT to 1.885398e-04.
FluidMinimize: 	Predicted alpha/alphaT>3.000000, increasing alphaT to 5.656193e-04.
FluidMinimize: 	Predicted alpha/alphaT>3.000000, increasing alphaT to 1.696858e-03.
FluidMinimize: Iter:   2  F: -0.012951704850557  |grad|_K:  9.947e-05  alpha:  2.569e-03  linmin:  3.145e-02  cgtest: -2.674e-01  t[s]:   9893.08
FluidMinimize: Iter:   3  F: -0.012967927540101  |grad|_K:  1.002e-04  alpha:  2.455e-03  linmin:  9.755e-04  cgtest:  4.466e-01  t[s]:   9893.41
FluidMinimize: Iter:   4  F: -0.012991245151834  |grad|_K:  4.770e-05  alpha:  2.621e-03  linmin: -1.095e-02  cgtest: -1.005e-01  t[s]:   9893.71
FluidMinimize: 	Predicted alpha/alphaT>3.000000, increasing alphaT to 7.863617e-03.
FluidMinimize: Iter:   5  F: -0.013019058183089  |grad|_K:  6.349e-05  alpha:  1.311e-02  linmin:  1.488e-03  cgtest: -1.988e-01  t[s]:   9894.16
FluidMinimize: Iter:   6  F: -0.013029074430834  |grad|_K:  6.366e-05  alpha:  3.371e-03  linmin:  8.149e-03  cgtest: -7.495e-02  t[s]:   9894.48
FluidMinimize: Iter:   7  F: -0.013037280221379  |grad|_K:  3.380e-05  alpha:  2.627e-03  linmin: -4.333e-04  cgtest:  2.804e-01  t[s]:   9894.79
FluidMinimize: Iter:   8  F: -0.013044226808672  |grad|_K:  5.178e-05  alpha:  7.113e-03  linmin:  1.228e-02  cgtest: -5.348e-02  t[s]:   9895.08
FluidMinimize: Iter:   9  F: -0.013053001956086  |grad|_K:  5.112e-05  alpha:  4.073e-03  linmin:  1.585e-03  cgtest:  2.430e-01  t[s]:   9895.40
FluidMinimize: Iter:  10  F: -0.013058960614780  |grad|_K:  4.108e-05  alpha:  2.652e-03  linmin:  2.164e-04  cgtest: -3.212e-02  t[s]:   9895.71
FluidMinimize: 	Predicted alpha/alphaT>3.000000, increasing alphaT to 7.956876e-03.
FluidMinimize: Iter:  11  F: -0.013071802454983  |grad|_K:  3.870e-05  alpha:  8.616e-03  linmin:  6.739e-04  cgtest: -4.881e-02  t[s]:   9896.14
FluidMinimize: Iter:  12  F: -0.013079218424974  |grad|_K:  5.289e-05  alpha:  5.425e-03  linmin: -6.078e-04  cgtest:  6.165e-02  t[s]:   9896.44
FluidMinimize: Iter:  13  F: -0.013089529729639  |grad|_K:  5.137e-05  alpha:  4.203e-03  linmin: -1.454e-03  cgtest:  2.859e-02  t[s]:   9896.75
FluidMinimize: Iter:  14  F: -0.013099101359344  |grad|_K:  4.991e-05  alpha:  4.061e-03  linmin: -1.974e-03  cgtest: -1.354e-02  t[s]:   9897.05
FluidMinimize: Iter:  15  F: -0.013107595778745  |grad|_K:  3.450e-05  alpha:  3.789e-03  linmin:  1.911e-03  cgtest: -5.586e-03  t[s]:   9897.35
FluidMinimize: Iter:  16  F: -0.013117198552952  |grad|_K:  6.009e-05  alpha:  9.554e-03  linmin:  6.925e-03  cgtest:  3.339e-02  t[s]:   9897.66
FluidMinimize: Iter:  17  F: -0.013127918406314  |grad|_K:  4.597e-05  alpha:  3.971e-03  linmin:  1.170e-02  cgtest: -5.177e-02  t[s]:   9897.98
FluidMinimize: Iter:  18  F: -0.013134358695234  |grad|_K:  5.006e-05  alpha:  3.695e-03  linmin: -2.514e-03  cgtest:  8.273e-02  t[s]:   9898.28
FluidMinimize: Iter:  19  F: -0.013144409497065  |grad|_K:  3.061e-05  alpha:  4.505e-03  linmin:  3.640e-03  cgtest: -1.850e-01  t[s]:   9898.59
FluidMinimize: Iter:  20  F: -0.013149060335404  |grad|_K:  4.668e-05  alpha:  5.928e-03  linmin:  7.312e-04  cgtest:  1.030e-01  t[s]:   9898.90
FluidMinimize: Iter:  21  F: -0.013157921020838  |grad|_K:  4.187e-05  alpha:  4.671e-03  linmin: -7.312e-04  cgtest: -2.657e-02  t[s]:   9899.21
FluidMinimize: Iter:  22  F: -0.013165930297532  |grad|_K:  3.798e-05  alpha:  5.131e-03  linmin:  4.355e-04  cgtest: -4.827e-02  t[s]:   9899.51
FluidMinimize: Iter:  23  F: -0.013169768673329  |grad|_K:  3.271e-05  alpha:  3.003e-03  linmin: -2.164e-04  cgtest: -5.227e-03  t[s]:   9899.82
FluidMinimize: 	Predicted alpha/alphaT>3.000000, increasing alphaT to 9.009581e-03.
FluidMinimize: Iter:  24  F: -0.013178343303825  |grad|_K:  4.231e-05  alpha:  9.038e-03  linmin: -3.049e-05  cgtest: -6.443e-02  t[s]:   9900.26
FluidMinimize: Iter:  25  F: -0.013184135426613  |grad|_K:  4.054e-05  alpha:  3.738e-03  linmin:  1.022e-03  cgtest: -4.960e-02  t[s]:   9900.56
FluidMinimize: Iter:  26  F: -0.013189956579179  |grad|_K:  3.071e-05  alpha:  4.061e-03  linmin:  5.930e-04  cgtest:  1.723e-02  t[s]:   9900.87
FluidMinimize: Converged (|Delta F|<6.562384e-06 for 2 iters).

Fluid minimization # 3 changed total free energy by -2.857005e-04 at t[s]:   9901.04

-------------------- Electronic Minimization # 3 ---------------------
	FillingsUpdate:  mu: -0.178691977  nElectrons: 339.000000
ElecMinimize: Iter:   0  F: -1819.947568595482835  |grad|_K:  6.094e-06  alpha:  1.000e+00
	FillingsUpdate:  mu: -0.176696096  nElectrons: 339.000000
	SubspaceRotationAdjust: set factor to 0.143
ElecMinimize: Iter:   1  F: -1819.947802612937721  |grad|_K:  1.218e-06  alpha:  1.291e-01  linmin:  1.639e-04  t[s]:  10499.91
ElecMinimize: 	Predicted alpha/alphaT>3.000000, increasing alphaT to 3.873395e-01.
	FillingsUpdate:  mu: -0.175601119  nElectrons: 339.000000
	SubspaceRotationAdjust: set factor to 0.197
ElecMinimize: Iter:   2  F: -1819.947837347944187  |grad|_K:  7.590e-07  alpha:  4.793e-01  linmin: -5.822e-07  t[s]:  11016.87
	FillingsUpdate:  mu: -0.175371488  nElectrons: 339.000000
	SubspaceRotationAdjust: set factor to 0.245
ElecMinimize: Iter:   3  F: -1819.947853746321243  |grad|_K:  5.787e-07  alpha:  5.827e-01  linmin: -3.569e-07  t[s]:  11438.11
	FillingsUpdate:  mu: -0.175126298  nElectrons: 339.000000
	SubspaceRotationAdjust: set factor to 0.21
ElecMinimize: Iter:   4  F: -1819.947862158031967  |grad|_K:  6.216e-07  alpha:  5.141e-01  linmin: -1.216e-07  t[s]:  11858.75
	FillingsUpdate:  mu: -0.174863400  nElectrons: 339.000000
	SubspaceRotationAdjust: set factor to 0.151
ElecMinimize: Iter:   5  F: -1819.947865012764623  |grad|_K:  5.527e-07  alpha:  1.513e-01  linmin:  2.802e-07  t[s]:  12276.01
	FillingsUpdate:  mu: -0.174964874  nElectrons: 339.000000
	SubspaceRotationAdjust: set factor to 0.214
ElecMinimize: Iter:   6  F: -1819.947870974529224  |grad|_K:  3.498e-07  alpha:  3.996e-01  linmin:  1.803e-06  t[s]:  12696.98
ElecMinimize: Converged (|Delta F|<6.562384e-06 for 2 iters).
Setting wave functions to eigenvectors of Hamiltonian

Electronic minimization # 3 changed total free energy by -1.077712e-04 at t[s]:  12715.18

---------------------- Fluid Minimization # 4 -----------------------
FluidMinimize: Iter:   0  F: -0.014741362819151  |grad|_K:  1.133e-04  alpha:  1.000e+00
FluidMinimize: 	Test step failed with F = inf, reducing alphaT to 1.000000e-01.
FluidMinimize: Iter:   1  F: -0.014742116417259  |grad|_K:  1.115e-04  alpha:  3.346e-05  linmin: -1.852e-01  cgtest:  1.000e+00  t[s]:  12715.80
FluidMinimize: Encountered beta<0, resetting CG.
FluidMinimize: 	Predicted alpha/alphaT>3.000000, increasing alphaT to 1.003690e-04.
FluidMinimize: 	Predicted alpha/alphaT>3.000000, increasing alphaT to 3.011069e-04.
FluidMinimize: 	Predicted alpha/alphaT>3.000000, increasing alphaT to 9.033207e-04.
FluidMinimize: Iter:   2  F: -0.014764709065976  |grad|_K:  5.709e-05  alpha:  2.135e-03  linmin:  1.307e-02  cgtest: -1.408e-01  t[s]:  12716.53
FluidMinimize: Iter:   3  F: -0.014780543524998  |grad|_K:  6.791e-05  alpha:  6.065e-03  linmin:  6.823e-04  cgtest:  2.232e-01  t[s]:  12716.84
FluidMinimize: Iter:   4  F: -0.014788111048494  |grad|_K:  4.670e-05  alpha:  2.101e-03  linmin:  1.194e-02  cgtest: -1.509e-01  t[s]:  12717.15
FluidMinimize: Iter:   5  F: -0.014796924732885  |grad|_K:  4.224e-05  alpha:  4.863e-03  linmin: -7.604e-03  cgtest:  2.715e-01  t[s]:  12717.46
FluidMinimize: Iter:   6  F: -0.014801600917437  |grad|_K:  2.866e-05  alpha:  2.745e-03  linmin: -1.261e-03  cgtest: -9.831e-02  t[s]:  12717.77
FluidMinimize: Iter:   7  F: -0.014806764641325  |grad|_K:  2.986e-05  alpha:  7.023e-03  linmin:  3.820e-04  cgtest:  1.047e-01  t[s]:  12718.07
FluidMinimize: Iter:   8  F: -0.014810036526666  |grad|_K:  4.119e-05  alpha:  4.264e-03  linmin:  7.734e-04  cgtest: -1.372e-02  t[s]:  12718.38
FluidMinimize: Iter:   9  F: -0.014816240421515  |grad|_K:  3.467e-05  alpha:  4.148e-03  linmin:  4.917e-03  cgtest: -4.963e-02  t[s]:  12718.69
FluidMinimize: Iter:  10  F: -0.014821017819256  |grad|_K:  4.307e-05  alpha:  4.639e-03  linmin:  2.903e-03  cgtest:  3.931e-02  t[s]:  12718.99
FluidMinimize: Iter:  11  F: -0.014829099083349  |grad|_K:  3.409e-05  alpha:  5.023e-03  linmin: -3.887e-03  cgtest:  8.765e-02  t[s]:  12719.31
FluidMinimize: Iter:  12  F: -0.014836413187071  |grad|_K:  3.539e-05  alpha:  6.917e-03  linmin: -8.580e-03  cgtest: -5.568e-03  t[s]:  12719.61
FluidMinimize: Iter:  13  F: -0.014840282684299  |grad|_K:  3.158e-05  alpha:  3.216e-03  linmin: -3.087e-03  cgtest: -2.183e-02  t[s]:  12719.92
FluidMinimize: Iter:  14  F: -0.014847207232888  |grad|_K:  4.276e-05  alpha:  7.694e-03  linmin:  1.461e-03  cgtest:  2.040e-02  t[s]:  12720.22
FluidMinimize: Iter:  15  F: -0.014851218016347  |grad|_K:  3.871e-05  alpha:  2.756e-03  linmin:  5.650e-03  cgtest: -4.214e-02  t[s]:  12720.53
FluidMinimize: Iter:  16  F: -0.014860510694068  |grad|_K:  4.047e-05  alpha:  7.358e-03  linmin: -2.328e-03  cgtest:  1.560e-01  t[s]:  12720.84
FluidMinimize: Iter:  17  F: -0.014864511173188  |grad|_K:  2.837e-05  alpha:  2.552e-03  linmin: -4.044e-03  cgtest:  3.980e-02  t[s]:  12721.15
FluidMinimize: 	Predicted alpha/alphaT>3.000000, increasing alphaT to 7.655382e-03.
FluidMinimize: Iter:  18  F: -0.014870777093269  |grad|_K:  3.523e-05  alpha:  8.418e-03  linmin: -3.591e-03  cgtest: -1.139e-02  t[s]:  12721.59
FluidMinimize: Iter:  19  F: -0.014874985829910  |grad|_K:  4.719e-05  alpha:  3.914e-03  linmin:  3.884e-03  cgtest: -5.539e-02  t[s]:  12721.90
FluidMinimize: Iter:  20  F: -0.014885921914045  |grad|_K:  4.161e-05  alpha:  5.704e-03  linmin:  3.990e-04  cgtest:  1.181e-01  t[s]:  12722.22
FluidMinimize: Iter:  21  F: -0.014891323036243  |grad|_K:  3.966e-05  alpha:  3.454e-03  linmin: -4.560e-04  cgtest:  4.495e-02  t[s]:  12722.54
FluidMinimize: Iter:  22  F: -0.014899599094422  |grad|_K:  2.870e-05  alpha:  5.813e-03  linmin: -5.468e-03  cgtest:  9.260e-02  t[s]:  12722.84
FluidMinimize: Iter:  23  F: -0.014903922152526  |grad|_K:  3.398e-05  alpha:  5.745e-03  linmin: -4.049e-03  cgtest: -1.799e-02  t[s]:  12723.15
FluidMinimize: Iter:  24  F: -0.014907172415121  |grad|_K:  3.372e-05  alpha:  3.015e-03  linmin: -1.654e-03  cgtest: -9.661e-03  t[s]:  12723.46
FluidMinimize: Iter:  25  F: -0.014915653611148  |grad|_K:  5.889e-05  alpha:  8.607e-03  linmin:  5.292e-03  cgtest:  7.268e-03  t[s]:  12723.77
FluidMinimize: Iter:  26  F: -0.014925523463678  |grad|_K:  3.803e-05  alpha:  3.543e-03  linmin:  1.249e-03  cgtest:  2.172e-01  t[s]:  12724.07
FluidMinimize: Iter:  27  F: -0.014933851373106  |grad|_K:  3.674e-05  alpha:  6.474e-03  linmin: -4.950e-03  cgtest:  1.537e-02  t[s]:  12724.38
FluidMinimize: Iter:  28  F: -0.014938239574509  |grad|_K:  4.108e-05  alpha:  3.454e-03  linmin: -1.657e-03  cgtest: -1.137e-03  t[s]:  12724.69
FluidMinimize: Iter:  29  F: -0.014945854205344  |grad|_K:  4.675e-05  alpha:  5.045e-03  linmin:  1.572e-03  cgtest:  6.764e-02  t[s]:  12725.00
FluidMinimize: Iter:  30  F: -0.014950688130658  |grad|_K:  3.126e-05  alpha:  2.620e-03  linmin:  2.815e-03  cgtest: -3.925e-02  t[s]:  12725.31
FluidMinimize: 	Predicted alpha/alphaT>3.000000, increasing alphaT to 7.858668e-03.
FluidMinimize: Iter:  31  F: -0.014957970840255  |grad|_K:  3.529e-05  alpha:  8.544e-03  linmin: -3.804e-03  cgtest:  1.780e-02  t[s]:  12725.76
FluidMinimize: Iter:  32  F: -0.014962159830884  |grad|_K:  4.151e-05  alpha:  3.538e-03  linmin: -4.485e-03  cgtest:  2.145e-02  t[s]:  12726.07
FluidMinimize: Iter:  33  F: -0.014970423572669  |grad|_K:  4.292e-05  alpha:  5.228e-03  linmin: -7.040e-04  cgtest:  1.571e-02  t[s]:  12726.38
FluidMinimize: Iter:  34  F: -0.014975625042780  |grad|_K:  3.812e-05  alpha:  3.271e-03  linmin:  5.840e-04  cgtest: -5.988e-03  t[s]:  12726.69
FluidMinimize: Iter:  35  F: -0.014984016992270  |grad|_K:  3.663e-05  alpha:  6.602e-03  linmin:  2.177e-03  cgtest: -6.546e-03  t[s]:  12727.00
FluidMinimize: Iter:  36  F: -0.014991227481906  |grad|_K:  6.154e-05  alpha:  6.146e-03  linmin:  2.153e-03  cgtest:  3.357e-02  t[s]:  12727.30
FluidMinimize: Iter:  37  F: -0.015001880275224  |grad|_K:  4.161e-05  alpha:  3.289e-03  linmin:  3.770e-04  cgtest:  9.051e-02  t[s]:  12727.62
FluidMinimize: Iter:  38  F: -0.015006161342464  |grad|_K:  3.448e-05  alpha:  2.821e-03  linmin: -1.522e-03  cgtest: -1.404e-02  t[s]:  12727.92
FluidMinimize: Iter:  39  F: -0.015013281103595  |grad|_K:  3.397e-05  alpha:  6.849e-03  linmin:  5.628e-03  cgtest: -1.112e-01  t[s]:  12728.23
FluidMinimize: Iter:  40  F: -0.015018422629536  |grad|_K:  4.890e-05  alpha:  5.252e-03  linmin:  6.103e-04  cgtest:  1.006e-01  t[s]:  12728.54
FluidMinimize: Iter:  41  F: -0.015024430924936  |grad|_K:  3.191e-05  alpha:  2.903e-03  linmin:  6.616e-04  cgtest: -2.854e-02  t[s]:  12728.84
FluidMinimize: Iter:  42  F: -0.015029793022258  |grad|_K:  4.156e-05  alpha:  5.862e-03  linmin: -4.952e-03  cgtest:  2.230e-02  t[s]:  12729.15
FluidMinimize: Iter:  43  F: -0.015036176862168  |grad|_K:  3.143e-05  alpha:  3.923e-03  linmin: -4.485e-05  cgtest: -1.542e-01  t[s]:  12729.47
FluidMinimize: Iter:  44  F: -0.015040065740605  |grad|_K:  4.433e-05  alpha:  4.463e-03  linmin:  1.874e-03  cgtest:  2.705e-02  t[s]:  12729.77
FluidMinimize: Iter:  45  F: -0.015046544624783  |grad|_K:  2.431e-05  alpha:  3.808e-03  linmin: -6.270e-04  cgtest:  1.401e-01  t[s]:  12730.09
FluidMinimize: 	Predicted alpha/alphaT>3.000000, increasing alphaT to 1.142453e-02.
FluidMinimize: Iter:  46  F: -0.015053201278874  |grad|_K:  3.745e-05  alpha:  1.271e-02  linmin:  2.112e-03  cgtest: -2.306e-02  t[s]:  12730.54
FluidMinimize: Iter:  47  F: -0.015056564748450  |grad|_K:  3.660e-05  alpha:  2.767e-03  linmin:  6.375e-04  cgtest:  1.267e-02  t[s]:  12730.87
FluidMinimize: Iter:  48  F: -0.015061566180150  |grad|_K:  2.550e-05  alpha:  4.236e-03  linmin: -1.898e-04  cgtest: -6.459e-02  t[s]:  12731.18
FluidMinimize: Iter:  49  F: -0.015067058799040  |grad|_K:  3.533e-05  alpha:  9.789e-03  linmin:  6.496e-03  cgtest: -4.930e-02  t[s]:  12731.48
FluidMinimize: Iter:  50  F: -0.015069396517008  |grad|_K:  2.852e-05  alpha:  2.283e-03  linmin:  2.258e-03  cgtest:  6.533e-02  t[s]:  12731.79
FluidMinimize: Iter:  51  F: -0.015074075017504  |grad|_K:  3.474e-05  alpha:  6.533e-03  linmin: -2.813e-03  cgtest: -2.650e-02  t[s]:  12732.10
FluidMinimize: Iter:  52  F: -0.015078003393675  |grad|_K:  2.619e-05  alpha:  3.522e-03  linmin: -1.296e-03  cgtest: -4.601e-02  t[s]:  12732.41
FluidMinimize: Iter:  53  F: -0.015082325005093  |grad|_K:  3.811e-05  alpha:  7.043e-03  linmin:  1.267e-04  cgtest:  2.651e-02  t[s]:  12732.72
FluidMinimize: Iter:  54  F: -0.015085703225174  |grad|_K:  2.840e-05  alpha:  2.665e-03  linmin:  8.908e-04  cgtest: -1.435e-02  t[s]:  12733.02
FluidMinimize: Iter:  55  F: -0.015089547774549  |grad|_K:  2.350e-05  alpha:  5.422e-03  linmin: -4.096e-04  cgtest:  6.438e-03  t[s]:  12733.33
FluidMinimize: Iter:  56  F: -0.015091671963644  |grad|_K:  3.081e-05  alpha:  4.315e-03  linmin:  3.941e-04  cgtest: -1.498e-02  t[s]:  12733.63
FluidMinimize: Iter:  57  F: -0.015095273244658  |grad|_K:  2.737e-05  alpha:  4.303e-03  linmin: -1.312e-03  cgtest:  5.292e-02  t[s]:  12733.94
FluidMinimize: Iter:  58  F: -0.015098114569272  |grad|_K:  2.888e-05  alpha:  4.242e-03  linmin: -1.509e-03  cgtest: -1.789e-02  t[s]:  12734.25
FluidMinimize: Iter:  59  F: -0.015101417278512  |grad|_K:  2.633e-05  alpha:  4.425e-03  linmin:  8.280e-04  cgtest: -1.224e-02  t[s]:  12734.55
FluidMinimize: Iter:  60  F: -0.015103492276592  |grad|_K:  2.928e-05  alpha:  3.392e-03  linmin:  3.465e-04  cgtest:  2.835e-02  t[s]:  12734.86
FluidMinimize: Iter:  61  F: -0.015107271996752  |grad|_K:  2.417e-05  alpha:  4.976e-03  linmin: -1.557e-03  cgtest: -8.792e-03  t[s]:  12735.16
FluidMinimize: Iter:  62  F: -0.015110297289053  |grad|_K:  3.269e-05  alpha:  5.778e-03  linmin: -6.050e-04  cgtest: -2.206e-02  t[s]:  12735.47
FluidMinimize: Iter:  63  F: -0.015112814467359  |grad|_K:  2.083e-05  alpha:  2.601e-03  linmin: -1.490e-03  cgtest:  6.738e-03  t[s]:  12735.78
FluidMinimize: 	Predicted alpha/alphaT>3.000000, increasing alphaT to 7.802791e-03.
FluidMinimize: Iter:  64  F: -0.015116147067208  |grad|_K:  3.018e-05  alpha:  8.601e-03  linmin:  1.691e-03  cgtest: -1.322e-02  t[s]:  12736.23
FluidMinimize: Iter:  65  F: -0.015118524506825  |grad|_K:  2.502e-05  alpha:  3.106e-03  linmin:  3.279e-03  cgtest: -1.413e-03  t[s]:  12736.54
FluidMinimize: Iter:  66  F: -0.015120456254727  |grad|_K:  2.397e-05  alpha:  3.577e-03  linmin: -6.098e-04  cgtest:  3.057e-02  t[s]:  12736.85
FluidMinimize: Converged (|Delta F|<2.857005e-06 for 2 iters).

Fluid minimization # 4 changed total free energy by -3.790934e-04 at t[s]:  12737.01

-------------------- Electronic Minimization # 4 ---------------------
	FillingsUpdate:  mu: -0.177351172  nElectrons: 339.000000
ElecMinimize: Iter:   0  F: -1819.948068609631036  |grad|_K:  7.455e-06  alpha:  1.000e+00
	FillingsUpdate:  mu: -0.175676006  nElectrons: 339.000000
	SubspaceRotationAdjust: set factor to 0.168
ElecMinimize: Iter:   1  F: -1819.948277743035760  |grad|_K:  1.219e-06  alpha:  7.752e-02  linmin:  1.931e-03  t[s]:  13327.96
ElecMinimize: 	Predicted alpha/alphaT>3.000000, increasing alphaT to 2.325644e-01.
	FillingsUpdate:  mu: -0.176038211  nElectrons: 339.000000
	SubspaceRotationAdjust: set factor to 0.165
ElecMinimize: Iter:   2  F: -1819.948300339885463  |grad|_K:  6.033e-07  alpha:  3.134e-01  linmin: -1.882e-06  t[s]:  13848.43
	FillingsUpdate:  mu: -0.175102319  nElectrons: 339.000000
	SubspaceRotationAdjust: set factor to 0.129
ElecMinimize: Iter:   3  F: -1819.948307761690103  |grad|_K:  4.874e-07  alpha:  4.174e-01  linmin: -1.691e-06  t[s]:  14270.86
	FillingsUpdate:  mu: -0.175131015  nElectrons: 339.000000
	SubspaceRotationAdjust: set factor to 0.0987
ElecMinimize: Iter:   4  F: -1819.948310533394533  |grad|_K:  4.350e-07  alpha:  2.389e-01  linmin:  4.844e-07  t[s]:  14693.03
	FillingsUpdate:  mu: -0.175042668  nElectrons: 339.000000
	SubspaceRotationAdjust: set factor to 0.126
ElecMinimize: Iter:   5  F: -1819.948314688830351  |grad|_K:  3.027e-07  alpha:  4.495e-01  linmin: -3.116e-06  t[s]:  15112.60
	FillingsUpdate:  mu: -0.174858674  nElectrons: 339.000000
	SubspaceRotationAdjust: set factor to 0.117
ElecMinimize: Iter:   6  F: -1819.948316860319665  |grad|_K:  2.804e-07  alpha:  4.850e-01  linmin: -1.777e-07  t[s]:  15536.56
	FillingsUpdate:  mu: -0.174927705  nElectrons: 339.000000
	SubspaceRotationAdjust: set factor to 0.0898
ElecMinimize: Iter:   7  F: -1819.948317866556408  |grad|_K:  2.216e-07  alpha:  2.620e-01  linmin: -3.020e-07  t[s]:  15961.63
ElecMinimize: Converged (|Delta F|<2.857005e-06 for 2 iters).
Setting wave functions to eigenvectors of Hamiltonian

Electronic minimization # 4 changed total free energy by -6.779859e-05 at t[s]:  15980.03

---------------------- Fluid Minimization # 5 -----------------------
FluidMinimize: Iter:   0  F: -0.016336799317884  |grad|_K:  9.345e-05  alpha:  1.000e+00
FluidMinimize: 	Test step failed with F = inf, reducing alphaT to 1.000000e-01.
FluidMinimize: Iter:   1  F: -0.016338078234974  |grad|_K:  8.949e-05  alpha:  8.456e-05  linmin: -2.126e-01  cgtest:  9.998e-01  t[s]:  15980.66
FluidMinimize: Encountered beta<0, resetting CG.
FluidMinimize: 	Predicted alpha/alphaT>3.000000, increasing alphaT to 2.536925e-04.
FluidMinimize: 	Predicted alpha/alphaT>3.000000, increasing alphaT to 7.610776e-04.
FluidMinimize: Iter:   2  F: -0.016351705908070  |grad|_K:  4.224e-05  alpha:  1.981e-03  linmin:  1.215e-02  cgtest: -1.138e-01  t[s]:  15981.24
FluidMinimize: 	Predicted alpha/alphaT>3.000000, increasing alphaT to 5.944472e-03.
FluidMinimize: Iter:   3  F: -0.016361398177716  |grad|_K:  3.221e-05  alpha:  6.583e-03  linmin:  4.931e-04  cgtest:  2.438e-01  t[s]:  15981.68
FluidMinimize: Iter:   4  F: -0.016365012510590  |grad|_K:  3.380e-05  alpha:  4.044e-03  linmin:  5.382e-04  cgtest: -2.138e-02  t[s]:  15981.98
FluidMinimize: Iter:   5  F: -0.016368493338054  |grad|_K:  2.654e-05  alpha:  3.455e-03  linmin:  2.991e-04  cgtest: -5.562e-02  t[s]:  15982.29
FluidMinimize: Converged (|Delta F|<3.790934e-06 for 2 iters).

Fluid minimization # 5 changed total free energy by -3.169402e-05 at t[s]:  15982.45

-------------------- Electronic Minimization # 5 ---------------------
	FillingsUpdate:  mu: -0.173459495  nElectrons: 339.000000
ElecMinimize: Iter:   0  F: -1819.948123768602727  |grad|_K:  5.390e-06  alpha:  1.000e+00
	FillingsUpdate:  mu: -0.175941061  nElectrons: 339.000000
	SubspaceRotationAdjust: set factor to 0.207
ElecMinimize: Iter:   1  F: -1819.948349880288333  |grad|_K:  7.635e-07  alpha:  1.593e-01  linmin: -1.292e-04  t[s]:  16581.72
	FillingsUpdate:  mu: -0.175772664  nElectrons: 339.000000
	SubspaceRotationAdjust: set factor to 0.246
ElecMinimize: Iter:   2  F: -1819.948361151369909  |grad|_K:  4.080e-07  alpha:  3.953e-01  linmin: -1.969e-04  t[s]:  17004.35
	FillingsUpdate:  mu: -0.175514751  nElectrons: 339.000000
	SubspaceRotationAdjust: set factor to 0.279
ElecMinimize: Iter:   3  F: -1819.948365202970763  |grad|_K:  3.084e-07  alpha:  4.973e-01  linmin:  1.698e-06  t[s]:  17426.17
	FillingsUpdate:  mu: -0.175357033  nElectrons: 339.000000
	SubspaceRotationAdjust: set factor to 0.2
ElecMinimize: Iter:   4  F: -1819.948366253938275  |grad|_K:  3.746e-07  alpha:  2.262e-01  linmin: -1.170e-07  t[s]:  17849.06
	FillingsUpdate:  mu: -0.175421765  nElectrons: 339.000000
	SubspaceRotationAdjust: set factor to 0.143
ElecMinimize: Iter:   5  F: -1819.948367302377619  |grad|_K:  1.765e-07  alpha:  1.530e-01  linmin:  2.249e-08  t[s]:  18271.09
ElecMinimize: Converged (|Delta F|<3.790934e-06 for 2 iters).
Setting wave functions to eigenvectors of Hamiltonian

Electronic minimization # 5 changed total free energy by -1.774180e-05 at t[s]:  18288.94

---------------------- Fluid Minimization # 6 -----------------------
FluidMinimize: Iter:   0  F: -0.016944463878680  |grad|_K:  6.077e-05  alpha:  1.000e+00
FluidMinimize: Iter:   1  F: -0.016944463878680  |grad|_K:  6.077e-05  alpha:  1.104e-20  linmin: -1.859e-01  cgtest:  1.000e+00  t[s]:  18289.43
FluidMinimize: Iter:   2  F: -0.016944463878680  |grad|_K:  6.077e-05  alpha:  1.104e-20  linmin: -1.859e-01  cgtest:  1.000e+00  t[s]:  18289.75
FluidMinimize: Encountered beta<0, resetting CG.
FluidMinimize: Iter:   3  F: -0.016944463878680  |grad|_K:  6.077e-05  alpha:  1.104e-20  linmin: -1.859e-01  cgtest:  1.000e+00  t[s]:  18290.09
FluidMinimize: Iter:   4  F: -0.016944463878680  |grad|_K:  6.077e-05  alpha:  1.104e-20  linmin: -1.859e-01  cgtest:  1.000e+00  t[s]:  18290.41
FluidMinimize: Encountered beta<0, resetting CG.
FluidMinimize: Converged (|Delta F|<3.169402e-07 for 2 iters).

Fluid minimization # 6 changed total free energy by -4.857226e-17 at t[s]:  18290.57

-------------------- Electronic Minimization # 6 ---------------------
	FillingsUpdate:  mu: -0.174436578  nElectrons: 339.000000
ElecMinimize: Iter:   0  F: -1819.948336298262802  |grad|_K:  2.345e-06  alpha:  1.000e+00
	FillingsUpdate:  mu: -0.175366529  nElectrons: 339.000000
	SubspaceRotationAdjust: set factor to 0.136
ElecMinimize: Iter:   1  F: -1819.948365874490946  |grad|_K:  3.477e-07  alpha:  1.102e-01  linmin:  2.675e-04  t[s]:  18888.45
	FillingsUpdate:  mu: -0.175487184  nElectrons: 339.000000
	SubspaceRotationAdjust: set factor to 0.179
ElecMinimize: Iter:   2  F: -1819.948367793820580  |grad|_K:  1.361e-07  alpha:  3.253e-01  linmin: -1.682e-05  t[s]:  19310.69
	FillingsUpdate:  mu: -0.175437453  nElectrons: 339.000000
	SubspaceRotationAdjust: set factor to 0.207
ElecMinimize: Iter:   3  F: -1819.948368251101783  |grad|_K:  9.060e-08  alpha:  5.056e-01  linmin: -3.107e-06  t[s]:  19731.99
	FillingsUpdate:  mu: -0.175429265  nElectrons: 339.000000
	SubspaceRotationAdjust: set factor to 0.216
ElecMinimize: Iter:   4  F: -1819.948368455336777  |grad|_K:  7.049e-08  alpha:  5.095e-01  linmin:  4.693e-06  t[s]:  20155.26
	FillingsUpdate:  mu: -0.175438465  nElectrons: 339.000000
	SubspaceRotationAdjust: set factor to 0.156
ElecMinimize: Iter:   5  F: -1819.948368504037489  |grad|_K:  6.913e-08  alpha:  2.006e-01  linmin:  9.758e-06  t[s]:  20577.35
ElecMinimize: Converged (|Delta F|<3.169402e-07 for 2 iters).
Setting wave functions to eigenvectors of Hamiltonian

Electronic minimization # 6 changed total free energy by -1.201660e-06 at t[s]:  20596.67

Fluid<-->Electron self-consistency loop converged to 1.000000e-05 hartrees after 6 minimization pairs at t[s]:  20596.67.

# Ionic positions in lattice coordinates:
ion O   0.677993223886995   0.487805968013166   0.327528098418042 1
ion O   0.428850733095147   0.722136246909868   0.328114086069116 1
ion C   0.499813763204541   0.502336592471020   0.302188070337473 1
ion H   0.412126284782482   0.340670724714160   0.315434948649729 1
ion H   0.727844315900835   0.333655404495097   0.304495253477299 1
ion H   0.303009058815541   0.729358034929469   0.304869201698482 1
ion Pt   0.000000000000000   0.000000000000000  -0.166660000000000 0
ion Pt   0.000000000000000   0.500000000000000  -0.166660000000000 0
ion Pt   0.500000000000000   0.000000000000000  -0.166660000000000 0
ion Pt   0.500000000000000   0.500000000000000  -0.166660000000000 0
ion Pt   0.250000000000000   0.250000000000000  -0.083330000000000 0
ion Pt   0.250000000000000   0.750000000000000  -0.083330000000000 0
ion Pt   0.750000000000000   0.250000000000000  -0.083330000000000 0
ion Pt   0.750000000000000   0.750000000000000  -0.083330000000000 0
ion Pt   0.000168349159567  -0.000315228977955   0.008268373486396 1
ion Pt  -0.000074589435500   0.499772684229130   0.008555311398351 1
ion Pt   0.499820357697225  -0.000070515045629   0.009359273007262 1
ion Pt   0.499909866892362   0.499819293014163   0.009847797832403 1
ion Pt   0.246437145829867   0.247197605677756   0.100486475572994 1
ion Pt   0.247517225089849   0.750620694101298   0.100436044239896 1
ion Pt   0.754091212869190   0.248046215542219   0.100384568350418 1
ion Pt   0.753536350820505   0.749328168970398   0.100285936485393 1
ion Pt  -0.000137363089383  -0.000526688016865   0.185670761001419 1
ion Pt   0.001823393966597   0.500302583324569   0.185195898868161 1
ion Pt   0.502233080775208  -0.002947281865965   0.182352802229354 1
ion Pt   0.499395347018040   0.494668328922555   0.179593954790446 1


# Forces in Lattice coordinates:
force O  -0.064018218964782  -0.032211882784662   0.042532690746789 1
force O  -0.017086489784873  -0.060326441213654  -0.030196242097535 1
force C   0.049296608809564   0.068777963239021   0.078946253558628 1
force H   0.006084164383801   0.013998349569013   0.165604187613354 1
force H   0.018998838606514   0.012710273422336   0.180322508853068 1
force H   0.000794244854566   0.025596210952482   0.218784756735945 1
force Pt  -0.001343348165125   0.000372472309321  -0.043250426668811 0
force Pt   0.000590513405397  -0.000003087480012  -0.036171125166236 0
force Pt   0.003435880501164   0.001231388068822   0.000202390132664 0
force Pt   0.000434243208350  -0.001496371661909  -0.041244721075300 0
force Pt   0.016780660440219   0.005331657500853  -0.028638134293632 0
force Pt   0.016995914005408  -0.006854266251592  -0.034143736623920 0
force Pt  -0.017072212392990   0.004013352895649  -0.025310646345412 0
force Pt  -0.016398960501733  -0.005795003884450  -0.032357570333109 0
force Pt  -0.000876942344184  -0.003138499385111  -0.056943271537107 1
force Pt   0.002665119927406  -0.001145232937177  -0.027088226048698 1
force Pt   0.004319769902544  -0.002703419196608   0.014031000254988 1
force Pt   0.001996888502590  -0.002709992498396  -0.093746059116422 1
force Pt  -0.011987502477255  -0.001972253867447  -0.031123591182764 1
force Pt  -0.022090433915063  -0.001431150779766  -0.045428952064430 1
force Pt   0.015802077563066  -0.005818510488707  -0.039144410972750 1
force Pt   0.020464456979104   0.000403889744605  -0.037490664869041 1
force Pt  -0.002281574719451  -0.002657194668925   0.024729549227622 1
force Pt  -0.011554327767452  -0.006792105574933  -0.012115313717909 1
force Pt  -0.001690998075285  -0.007959799702475  -0.058482901925909 1
force Pt   0.013623988774600   0.015445435408975   0.039557194365495 1

# Energy components:
   A_diel =       -0.0170303940644487
   Eewald =     1936.1261467361130144
       EH =     3636.7834105388183161
     Eloc =    -7715.2993175582059848
      Enl =      -15.5835403476510113
      Exc =     -576.3519557971102358
 Exc_core =      324.9917357703940866
       KE =      589.6336645418824673
  MuShift =       -0.0000000000160890
-------------------------------------
     Etot =    -1819.7168865098399237
       TS =        0.2314819941976704
-------------------------------------
        F =    -1819.9483685040374894

IonicMinimize: Iter:   0  F: -1819.948368504037489  |grad|_K:  2.331e-03  t[s]:  20644.99
IonicMinimize: None of the convergence criteria satisfied after 0 iterations.

#--- Lowdin population analysis ---
# oxidation-state O -0.389 -0.374
# oxidation-state C +0.298
# oxidation-state H +0.241 +0.453 +0.457
# oxidation-state Pt +0.045 +0.045 +0.043 +0.041 -0.052 -0.052 -0.052 -0.052 +0.002 +0.001 +0.004 -0.017 -0.047 -0.054 -0.054 -0.044 +0.016 +0.002 +0.010 -0.051


Dumping '100_1-Solvated.ionpos' ... done
Dumping '100_1-Solvated.n' ... done
Dumping '100_1-Solvated.eigStats' ... 
	eMin: -2.130579 at state 0 ( [ +0.000000 +0.000000 +0.000000 ] spin 0 )
	HOMO: -0.176029 at state 0 ( [ +0.000000 +0.000000 +0.000000 ] spin 0 )
	mu  : -0.175438
	LUMO: -0.174615 at state 9 ( [ +0.500000 +0.500000 +0.000000 ] spin 0 )
	eMax: +0.364005 at state 9 ( [ +0.500000 +0.500000 +0.000000 ] spin 0 )
	HOMO-LUMO gap: +0.001414
	Optical gap  : +0.001553 at state 0 ( [ +0.000000 +0.000000 +0.000000 ] spin 0 )
Dumping '100_1-Solvated.Ecomponents' ... done
End date and time: Sat Jun  1 15:59:12 2019  (Duration: 0-5:45:05.41)
Done!
