
*************** JDFTx 1.4.2 (git hash 74b6e54) ***************

Start date and time: Sat Apr 27 18:34:23 2019
Executable jdftx with command-line: -ni testGeometry.in
Running on hosts (process indices):  ws03 (0)
Divided in process groups (process indices):  0 (0)
Resource initialization completed at t[s]:      0.00
Run totals: 1 processes, 6 threads, 0 GPUs
Could not open file 'testGeometry.in' for reading.
--------------------------------------------------------------------------
MPI_ABORT was invoked on rank 0 in communicator MPI_COMM_WORLD 
with errorcode 1.

NOTE: invoking MPI_ABORT causes Open MPI to kill all MPI processes.
You may or may not see output from other processes, depending on
exactly when Open MPI kills them.
--------------------------------------------------------------------------
