--------------------------------------------------------------------------
Initialization of PSM library failed.

  Error: PSM is in the finalized state
--------------------------------------------------------------------------
--------------------------------------------------------------------------
The OpenFabrics (openib) BTL failed to initialize while trying to
allocate some locked memory.  This typically can indicate that the
memlock limits are set too low.  For most HPC installations, the
memlock limits should be set to "unlimited".  The failure occured
here:

  Local host:    node2008
  OMPI source:   btl_openib.c:753
  Function:      ompi_free_list_init_ex_new()
  Device:        qib0
  Memlock limit: 65536

You may need to consult with your system administrator to get this
problem fixed.  This FAQ entry on the Open MPI web site may also be
helpful:

    http://www.open-mpi.org/faq/?category=openfabrics#ib-locked-pages
--------------------------------------------------------------------------

*************** JDFTx 1.4.2 (git hash 74b6e54) ***************

Start date and time: Sun May 26 08:06:10 2019
Executable /home/jfm343/JDFTXDIR/build/jdftx with command-line: -i Solvated.in
Running on hosts (process indices):  node2008.physics.cornell.edu (0)
Divided in process groups (process indices):  0 (0)
Resource initialization completed at t[s]:      0.00
Run totals: 1 processes, 12 threads, 0 GPUs


Input parsed successfully to the following command list (including defaults):

basis kpoint-dependent
coords-type Lattice
core-overlap-check vector
coulomb-interaction Slab 001
coulomb-truncation-embed 0 0 0
davidson-band-ratio 1.1
dump End IonicPositions ElecDensity EigStats Ecomponents
dump-name 100_1-Solvated.$VAR
elec-cutoff 20 100
elec-eigen-algo Davidson
elec-ex-corr gga-PBEsol
elec-smearing Fermi 0.01
electronic-minimize  \
	dirUpdateScheme      FletcherReeves \
	linminMethod         DirUpdateRecommended \
	nIterations          200 \
	history              15 \
	knormThreshold       0 \
	energyDiffThreshold  1e-08 \
	nEnergyDiff          2 \
	alphaTstart          1 \
	alphaTmin            1e-10 \
	updateTestStepSize   yes \
	alphaTreduceFactor   0.1 \
	alphaTincreaseFactor 3 \
	nAlphaAdjustMax      3 \
	wolfeEnergy          0.0001 \
	wolfeGradient        0.9 \
	fdTest               no
exchange-regularization WignerSeitzTruncated
fluid NonlinearPCM 298.000000 1.013250
fluid-anion ClO4- 0.2 MeanFieldLJ \
	epsBulk 1 \
	pMol 0 \
	epsInf 1 \
	Pvap 0 \
	sigmaBulk 0 \
	Rvdw 4.55424 \
	Res 0 \
	tauNuc 343133 \
	omegaEl 0.55124 \
	gammaEl 0.257245
fluid-cation Na+ 0.2 MeanFieldLJ \
	epsBulk 1 \
	pMol 0 \
	epsInf 1 \
	Pvap 0 \
	sigmaBulk 0 \
	Rvdw 2.19208 \
	Res 0 \
	tauNuc 343133 \
	omegaEl 0.55124 \
	gammaEl 0.257245
fluid-ex-corr lda-TF lda-PZ
fluid-gummel-loop 10 1.000000e-05
fluid-minimize  \
	dirUpdateScheme      PolakRibiere \
	linminMethod         DirUpdateRecommended \
	nIterations          100 \
	history              15 \
	knormThreshold       1e-11 \
	energyDiffThreshold  0 \
	nEnergyDiff          2 \
	alphaTstart          1 \
	alphaTmin            1e-10 \
	updateTestStepSize   yes \
	alphaTreduceFactor   0.1 \
	alphaTincreaseFactor 3 \
	nAlphaAdjustMax      6 \
	wolfeEnergy          0.0001 \
	wolfeGradient        0.9 \
	fdTest               no
fluid-solvent H2O 55.338 ScalarEOS \
	epsBulk 78.4 \
	pMol 0.92466 \
	epsInf 1.77 \
	Pvap 1.06736e-10 \
	sigmaBulk 4.62e-05 \
	Rvdw 2.61727 \
	Res 1.42 \
	tauNuc 343133 \
	omegaEl 0.55124 \
	gammaEl 0.257245
forces-output-coords Positions
initial-state 100_1-Vacuum.$VAR
ion O   0.679701616657449   0.487607256772032   0.327059541831774 1
ion O   0.428474312960427   0.721441492040712   0.327743053121101 1
ion C   0.499946524310331   0.502264558113185   0.302255963703784 1
ion H   0.411163661427989   0.340052378698724   0.315425561820785 1
ion H   0.729865839880594   0.333892038857797   0.304208379018989 1
ion H   0.301305039252737   0.728609518761278   0.304489347999201 1
ion Pt   0.000000000000000   0.000000000000000  -0.166660000000000 0
ion Pt   0.000000000000000   0.500000000000000  -0.166660000000000 0
ion Pt   0.500000000000000   0.000000000000000  -0.166660000000000 0
ion Pt   0.500000000000000   0.500000000000000  -0.166660000000000 0
ion Pt   0.250000000000000   0.250000000000000  -0.083330000000000 0
ion Pt   0.250000000000000   0.750000000000000  -0.083330000000000 0
ion Pt   0.750000000000000   0.250000000000000  -0.083330000000000 0
ion Pt   0.750000000000000   0.750000000000000  -0.083330000000000 0
ion Pt   0.000095816471271  -0.000274989129935   0.007682058961751 1
ion Pt  -0.000165068371681   0.499737709720761   0.008173374843697 1
ion Pt   0.499780594245307  -0.000120987389739   0.009058683203543 1
ion Pt   0.499897826849534   0.499833709636970   0.009783805258811 1
ion Pt   0.246274738991983   0.247299724000643   0.100811712750352 1
ion Pt   0.247335430514967   0.750958158654680   0.100722951779771 1
ion Pt   0.754120714194280   0.248183030058291   0.100754328493425 1
ion Pt   0.753659913205309   0.749632633238199   0.100667775291878 1
ion Pt  -0.000158099065868  -0.000350541054925   0.186675401730390 1
ion Pt   0.002089461734276   0.500398526227387   0.186088854735816 1
ion Pt   0.502280583428559  -0.002240294834681   0.183265566759387 1
ion Pt   0.499218038894946   0.494862014504384   0.180697314669622 1
ion-species GBRV/$ID_pbesol.uspp
ion-width Ecut
ionic-minimize  \
	dirUpdateScheme      L-BFGS \
	linminMethod         DirUpdateRecommended \
	nIterations          0 \
	history              15 \
	knormThreshold       0.0001 \
	energyDiffThreshold  1e-06 \
	nEnergyDiff          2 \
	alphaTstart          1 \
	alphaTmin            1e-10 \
	updateTestStepSize   yes \
	alphaTreduceFactor   0.1 \
	alphaTincreaseFactor 3 \
	nAlphaAdjustMax      3 \
	wolfeEnergy          0.0001 \
	wolfeGradient        0.9 \
	fdTest               no
kpoint   0.000000000000   0.000000000000   0.000000000000  1.00000000000000
kpoint-folding 4 4 1 
latt-move-scale 1 1 1
latt-scale 1 1 1 
lattice Triclinic 13.6552 10.3852 31.1556 90 90 90
lattice-minimize  \
	dirUpdateScheme      L-BFGS \
	linminMethod         DirUpdateRecommended \
	nIterations          0 \
	history              15 \
	knormThreshold       0 \
	energyDiffThreshold  1e-06 \
	nEnergyDiff          2 \
	alphaTstart          1 \
	alphaTmin            1e-10 \
	updateTestStepSize   yes \
	alphaTreduceFactor   0.1 \
	alphaTincreaseFactor 3 \
	nAlphaAdjustMax      3 \
	wolfeEnergy          0.0001 \
	wolfeGradient        0.9 \
	fdTest               no
lcao-params -1 1e-06 0.01
pcm-variant GLSSA13
spintype no-spin
subspace-rotation-factor 1 yes
symmetries automatic
symmetry-threshold 0.0001



---------- Setting up symmetries ----------

Found 8 point-group symmetries of the bravais lattice
Found 1 space-group symmetries with basis
Applied RMS atom displacement 0 bohrs to make symmetries exact.

---------- Initializing the Grid ----------
R = 
[    13.6552          0          0  ]
[          0    10.3852          0  ]
[          0          0    31.1556  ]
unit cell volume = 4418.23
G =
[   0.460132          0          0  ]
[          0   0.605013          0  ]
[          0          0   0.201671  ]
Minimum fftbox size, Smin = [  64  48  144  ]
Chosen fftbox size, S = [  64  48  144  ]

---------- Initializing tighter grid for wavefunction operations ----------
R = 
[    13.6552          0          0  ]
[          0    10.3852          0  ]
[          0          0    31.1556  ]
unit cell volume = 4418.23
G =
[   0.460132          0          0  ]
[          0   0.605013          0  ]
[          0          0   0.201671  ]
Minimum fftbox size, Smin = [  56  44  128  ]
Chosen fftbox size, S = [  56  48  128  ]

---------- Exchange Correlation functional ----------
Initalized PBEsol GGA exchange.
Initalized PBEsol GGA correlation.

---------- Setting up pseudopotentials ----------
Width of ionic core gaussian charges (only for fluid interactions / plotting) set to 0.397384

Reading pseudopotential file '/home/jfm343/JDFTXDIR/build/pseudopotentials/GBRV/o_pbesol.uspp':
  Title: O.  Created by USPP 7.3.6 on 3-2-2014
  Reference state energy: -15.849885.  6 valence electrons in orbitals:
    |200>  occupation: 2  eigenvalue: -0.873214
    |210>  occupation: 4  eigenvalue: -0.330058
  lMax: 2  lLocal: 2  QijEcut: 6
  5 projectors sampled on a log grid with 511 points:
    l: 0  eig: -0.873214  rCut: 1.25
    l: 0  eig: 0.000000  rCut: 1.25
    l: 1  eig: -0.330058  rCut: 1.25
    l: 1  eig: 0.000000  rCut: 1.25
    l: 2  eig: 1.000000  rCut: 1.25
  Partial core density with radius 0.7
  Transforming core density to a uniform radial grid of dG=0.02 with 1269 points.
  Transforming local potential to a uniform radial grid of dG=0.02 with 1269 points.
  Transforming nonlocal projectors to a uniform radial grid of dG=0.02 with 432 points.
  Transforming density augmentations to a uniform radial grid of dG=0.02 with 1269 points.
  Transforming atomic orbitals to a uniform radial grid of dG=0.02 with 432 points.
  Core radius for overlap checks: 1.25 bohrs.

Reading pseudopotential file '/home/jfm343/JDFTXDIR/build/pseudopotentials/GBRV/c_pbesol.uspp':
  Title: C.  Created by USPP 7.3.6 on 3-2-2014
  Reference state energy: -5.383511.  4 valence electrons in orbitals:
    |200>  occupation: 2  eigenvalue: -0.501126
    |210>  occupation: 2  eigenvalue: -0.192448
  lMax: 1  lLocal: 2  QijEcut: 5
  4 projectors sampled on a log grid with 503 points:
    l: 0  eig: -0.501126  rCut: 1.3
    l: 0  eig: 0.000000  rCut: 1.3
    l: 1  eig: -0.192448  rCut: 1.3
    l: 1  eig: 0.000000  rCut: 1.3
  Partial core density with radius 1.1
  Transforming core density to a uniform radial grid of dG=0.02 with 1269 points.
  Transforming local potential to a uniform radial grid of dG=0.02 with 1269 points.
  Transforming nonlocal projectors to a uniform radial grid of dG=0.02 with 432 points.
  Transforming density augmentations to a uniform radial grid of dG=0.02 with 1269 points.
  Transforming atomic orbitals to a uniform radial grid of dG=0.02 with 432 points.
  Core radius for overlap checks: 1.30 bohrs.

Reading pseudopotential file '/home/jfm343/JDFTXDIR/build/pseudopotentials/GBRV/h_pbesol.uspp':
  Title: H.  Created by USPP 7.3.6 on 22-9-15
  Reference state energy: -0.449841.  1 valence electrons in orbitals:
    |100>  occupation: 1  eigenvalue: -0.232690
  lMax: 0  lLocal: 1  QijEcut: 6
  2 projectors sampled on a log grid with 395 points:
    l: 0  eig: -0.232690  rCut: 1.2
    l: 0  eig: 1.000000  rCut: 1.2
  Transforming local potential to a uniform radial grid of dG=0.02 with 1269 points.
  Transforming nonlocal projectors to a uniform radial grid of dG=0.02 with 432 points.
  Transforming density augmentations to a uniform radial grid of dG=0.02 with 1269 points.
  Transforming atomic orbitals to a uniform radial grid of dG=0.02 with 432 points.
  Core radius for overlap checks: 1.20 bohrs.

Reading pseudopotential file '/home/jfm343/JDFTXDIR/build/pseudopotentials/GBRV/pt_pbesol.uspp':
  Title: Pt.  Created by USPP 7.3.6 on 22-9-15
  Reference state energy: -104.899005.  16 valence electrons in orbitals:
    |510>  occupation: 6  eigenvalue: -2.158847
    |520>  occupation: 9.5  eigenvalue: -0.336311
    |600>  occupation: 0  eigenvalue: -0.320324
    |610>  occupation: 0  eigenvalue: -0.119800
  lMax: 2  lLocal: 3  QijEcut: 5.5
  6 projectors sampled on a log grid with 745 points:
    l: 0  eig: -0.320324  rCut: 2.45
    l: 0  eig: 1.500000  rCut: 2.45
    l: 1  eig: -2.158847  rCut: 1.6
    l: 1  eig: -0.119800  rCut: 1.6
    l: 2  eig: -0.500000  rCut: 1.6
    l: 2  eig: -0.336311  rCut: 1.6
  Partial core density with radius 1.1
  Transforming core density to a uniform radial grid of dG=0.02 with 1269 points.
  Transforming local potential to a uniform radial grid of dG=0.02 with 1269 points.
  Transforming nonlocal projectors to a uniform radial grid of dG=0.02 with 432 points.
  Transforming density augmentations to a uniform radial grid of dG=0.02 with 1269 points.
  Transforming atomic orbitals to a uniform radial grid of dG=0.02 with 432 points.
  Core radius for overlap checks: 2.45 bohrs.

Initialized 4 species with 26 total atoms.

Folded 1 k-points by 4x4x1 to 16 k-points.

---------- Setting up k-points, bands, fillings ----------
Adding inversion symmetry to k-mesh for non-inversion-symmetric unit cell.
Reduced to 10 k-points under symmetry. 
Computing the number of bands and number of electrons
Reading initial fillings from file 100_1-Vacuum.fillings.
nElectrons: 339.000000   nBands: 255   nStates: 10

----- Setting up reduced wavefunction bases (one per k-point) -----
average nbasis = 18876.562 , ideal nbasis = 18875.034

---------- Setting up coulomb interaction ----------
Fluid mode embedding: using embedded box, but periodic Coulomb kernel.
(Fluid response is responsible for (approximate) separation between periodic images.)
Setting up double-sized grid for truncated Coulomb potentials:
R = 
[    13.6552          0          0  ]
[          0    10.3852          0  ]
[          0          0    62.3112  ]
unit cell volume = 8836.47
G =
[   0.460132          0          0  ]
[          0   0.605013          0  ]
[          0          0   0.100836  ]
Chosen fftbox size, S = [  64  48  288  ]
Integer grid location selected as the embedding center:
   Grid: [  0  0  0  ]
   Lattice: [  0  0  0  ]
   Cartesian: [  0  0  0  ]
Constructing Wigner-Seitz cell: 6 faces (6 quadrilaterals, 0 hexagons)
Range-separation parameter for embedded mesh potentials due to point charges: 0.586809 bohrs.

---------- Setting up ewald sum ----------
Optimum gaussian width for ewald sums = 4.791896 bohr.
Real space sum over 715 unit cells with max indices [  5  6  2  ]
Reciprocal space sum over 6149 terms with max indices [  6  5  21  ]

---------- Allocating electronic variables ----------
Initializing wave functions:  reading from '100_1-Vacuum.wfns'
----- createFluidSolver() ----- (Fluid-side solver setup)
   Initializing fluid molecule 'H2O'
     Initializing site 'O'
       Electron density: proportional to exp(-r/0.36935)*erfc((r-0.51523)/0.36823) with norm 6.826
       Charge density: gaussian nuclear width 0.478731 with net site charge 0.826
       Polarizability: cuspless exponential with width 0.32 and norm 3.73
       Hard sphere radius: 2.57003 bohrs
       Positions in reference frame:
         [ +0.000000 +0.000000 +0.000000 ]
     Initializing site 'H'
       Electron density: proportional to exp(-r/0.34641)*erfc((r-0)/0.390882) with norm 0.587
       Charge density: gaussian nuclear width 0.377945 with net site charge -0.413
       Polarizability: cuspless exponential with width 0.39 and norm 3.3
       Positions in reference frame:
         [ +0.000000 -1.441945 +1.122523 ]
         [ +0.000000 +1.441945 +1.122523 ]
     Net charge: 0   dipole magnitude: 0.927204
     Initializing spherical shell mfKernel with radius 2.61727 Bohr
     deltaS corrections:
       site 'O': -7.54299
       site 'H': -6.83917
   Initializing fluid molecule 'Na+'
     Initializing site 'Na'
       Electron density: proportional to exp(-r/0.19682)*erfc((r-0.71491)/0.41314) with norm 8.1383
       Charge density: gaussian nuclear width 0.365347 with net site charge -1
       Hard sphere radius: 1.86327 bohrs
       Positions in reference frame:
         [ +0.000000 +0.000000 +0.000000 ]
     Net charge: -1   dipole magnitude: 0
     Initializing gaussian mfKernel with width: 1.55004 Bohr
     deltaS corrections:
       site 'Na': -22.3555
   Initializing fluid molecule 'ClO4-'
     Initializing site 'Cl'
       Electron density: proportional to exp(-r/0.48793)*erfc((r-0.93371)/0.45657) with norm 6.2308
       Charge density: gaussian nuclear width 0.55117 with net site charge -0.7692
       Hard sphere radius: 4.42196 bohrs
       Positions in reference frame:
         [ +0.000000 +0.000000 +0.000000 ]
     Initializing site 'O'
       Electron density: proportional to exp(-r/0.36013)*erfc((r-0.51636)/0.37371) with norm 6.4423
       Charge density: gaussian nuclear width 0.478731 with net site charge 0.4423
       Positions in reference frame:
         [ +1.705286 +1.705286 +1.705286 ]
         [ +1.705286 -1.705286 -1.705286 ]
         [ -1.705286 +1.705286 -1.705286 ]
         [ -1.705286 -1.705286 +1.705286 ]
     Net charge: 1   dipole magnitude: 0
     Initializing gaussian mfKernel with width: 3.22033 Bohr
     deltaS corrections:
       site 'Cl': -87.0374
       site 'O': 12.0842

Correction to mu due to finite nuclear width = -0.0380645
   Cavity determined by nc: 0.001 and sigma: 0.6
   Effective cavity tension: 9.5e-06 Eh/bohr^2 to account for cavitation and dispersion.
   Nonlinear dielectric with epsBulk = 78.4 and epsInf = 1.77 with density Nmol = 0.0049383 of dipoles pMol = 0.92466 at T = 298 K.
   Nonlinear ions with screening length = 12.843 bohrs and Z = 1 at T = 298 K.


---- Citations for features of the code used in this run ----

   Software package:
      R. Sundararaman, K. Letchworth-Weaver, K.A. Schwarz, D. Gunceler, Y. Ozhabes and T.A. Arias, 'JDFTx: software for joint density-functional theory', SoftwareX 6, 278 (2017)

   gga-PBEsol exchange-correlation functional:
      J.P. Perdew et al., Phys. Rev. Lett. 100, 136406 (2008)

   Pseudopotentials:
      KF Garrity, JW Bennett, KM Rabe and D Vanderbilt, Comput. Mater. Sci. 81, 446 (2014)

   Truncated Coulomb potentials:
      R. Sundararaman and T.A. Arias, Phys. Rev. B 87, 165122 (2013)

   Linear/nonlinear dielectric/ionic fluid model with effective cavity tension:
      D. Gunceler, K. Letchworth-Weaver, R. Sundararaman, K.A. Schwarz and T.A. Arias, Modelling Simul. Mater. Sci. Eng. 21, 074005 (2013)

   Total energy minimization with Auxiliary Hamiltonian:
      C. Freysoldt, S. Boeck, and J. Neugebauer, Phys. Rev. B 79, 241103(R) (2009)

This list may not be complete. Please suggest additional citations or
report any other bugs at https://github.com/shankar1729/jdftx/issues

Initialization completed successfully at t[s]:     95.18

Initializing state of NonlinearPCM using a similar LinearPCM: 	Linear fluid (dielectric constant: 78.4, screening length: 12.843 Bohr) occupying 0.672760 of unit cell:	Completed after 44 iterations at t[s]:    107.75

-------- Electron <-> Fluid self-consistency loop -----------

---------------------- Fluid Minimization # 1 -----------------------
FluidMinimize: Iter:   0  F: -0.002135743546695  |grad|_K:  5.778e-05  alpha:  1.000e+00
FluidMinimize: Iter:   1  F: -0.002135747037717  |grad|_K:  5.778e-05  alpha:  5.909e-07  linmin: -7.701e-02  cgtest:  1.000e+00  t[s]:    110.24
FluidMinimize: Encountered beta<0, resetting CG.
FluidMinimize: 	Predicted alpha/alphaT>3.000000, increasing alphaT to 1.772715e-06.
FluidMinimize: 	Predicted alpha/alphaT>3.000000, increasing alphaT to 5.318146e-06.
FluidMinimize: 	Predicted alpha/alphaT>3.000000, increasing alphaT to 1.595444e-05.
FluidMinimize: 	Predicted alpha/alphaT>3.000000, increasing alphaT to 4.786332e-05.
FluidMinimize: 	Predicted alpha/alphaT>3.000000, increasing alphaT to 1.435899e-04.
FluidMinimize: 	Predicted alpha/alphaT>3.000000, increasing alphaT to 4.307698e-04.
FluidMinimize: Iter:   2  F: -0.002182863833178  |grad|_K:  4.282e-05  alpha:  1.598e-02  linmin:  3.720e-04  cgtest: -6.185e-03  t[s]:    111.86
FluidMinimize: 	Predicted alpha/alphaT>3.000000, increasing alphaT to 4.792611e-02.
FluidMinimize: 	Predicted alpha/alphaT>3.000000, increasing alphaT to 1.437783e-01.
FluidMinimize: Iter:   3  F: -0.002469908034671  |grad|_K:  5.834e-05  alpha:  1.760e-01  linmin: -9.633e-03  cgtest:  6.375e-02  t[s]:    112.78
FluidMinimize: Iter:   4  F: -0.002583659148384  |grad|_K:  2.621e-05  alpha:  3.837e-02  linmin:  4.019e-03  cgtest: -2.719e-01  t[s]:    113.27
FluidMinimize: Iter:   5  F: -0.002610418305162  |grad|_K:  4.166e-05  alpha:  4.541e-02  linmin: -7.415e-04  cgtest:  4.849e-02  t[s]:    113.78
FluidMinimize: Iter:   6  F: -0.002684989294024  |grad|_K:  2.289e-05  alpha:  4.813e-02  linmin: -6.742e-03  cgtest: -1.779e-01  t[s]:    114.28
FluidMinimize: Iter:   7  F: -0.002731694869454  |grad|_K:  2.475e-05  alpha:  9.452e-02  linmin: -6.799e-03  cgtest: -6.413e-02  t[s]:    114.80
FluidMinimize: Iter:   8  F: -0.002776946862763  |grad|_K:  3.256e-05  alpha:  7.914e-02  linmin:  1.145e-03  cgtest: -1.064e-01  t[s]:    115.30
FluidMinimize: Iter:   9  F: -0.002797207951427  |grad|_K:  2.020e-05  alpha:  2.296e-02  linmin:  4.169e-03  cgtest: -1.903e-02  t[s]:    115.82
FluidMinimize: 	Predicted alpha/alphaT>3.000000, increasing alphaT to 6.887397e-02.
FluidMinimize: Iter:  10  F: -0.002835416280780  |grad|_K:  2.309e-05  alpha:  1.085e-01  linmin: -5.260e-03  cgtest:  7.058e-02  t[s]:    116.55
FluidMinimize: Iter:  11  F: -0.002855347286232  |grad|_K:  2.672e-05  alpha:  4.073e-02  linmin: -9.202e-04  cgtest: -5.222e-02  t[s]:    117.05
FluidMinimize: Iter:  12  F: -0.002877211068166  |grad|_K:  1.685e-05  alpha:  3.453e-02  linmin: -1.319e-03  cgtest:  3.647e-02  t[s]:    117.55
FluidMinimize: Iter:  13  F: -0.002899406476659  |grad|_K:  2.187e-05  alpha:  8.563e-02  linmin: -6.695e-03  cgtest:  9.130e-03  t[s]:    118.10
FluidMinimize: Iter:  14  F: -0.002911272733270  |grad|_K:  1.831e-05  alpha:  2.658e-02  linmin: -1.435e-03  cgtest: -4.336e-02  t[s]:    118.60
FluidMinimize: Iter:  15  F: -0.002934621494463  |grad|_K:  1.745e-05  alpha:  7.875e-02  linmin:  3.318e-03  cgtest:  4.029e-02  t[s]:    119.12
FluidMinimize: Iter:  16  F: -0.002945342467508  |grad|_K:  2.196e-05  alpha:  4.065e-02  linmin: -2.245e-04  cgtest:  2.943e-02  t[s]:    119.62
FluidMinimize: Iter:  17  F: -0.002964505842600  |grad|_K:  1.679e-05  alpha:  4.485e-02  linmin:  6.592e-04  cgtest: -7.316e-02  t[s]:    120.11
FluidMinimize: Iter:  18  F: -0.002987039554511  |grad|_K:  2.377e-05  alpha:  9.492e-02  linmin:  9.884e-03  cgtest: -3.812e-02  t[s]:    120.62
FluidMinimize: Iter:  19  F: -0.002997379564847  |grad|_K:  1.875e-05  alpha:  2.353e-02  linmin:  1.887e-03  cgtest:  1.058e-01  t[s]:    121.12
FluidMinimize: 	Predicted alpha/alphaT>3.000000, increasing alphaT to 7.057903e-02.
FluidMinimize: Iter:  20  F: -0.003031634748765  |grad|_K:  2.912e-05  alpha:  1.083e-01  linmin: -9.563e-03  cgtest: -1.218e-01  t[s]:    121.86
FluidMinimize: Iter:  21  F: -0.003039184517199  |grad|_K:  2.860e-05  alpha:  4.563e-03  linmin: -1.210e-01  cgtest:  9.936e-01  t[s]:    122.37
FluidMinimize: Encountered beta<0, resetting CG.
FluidMinimize: 	Predicted alpha/alphaT>3.000000, increasing alphaT to 1.368829e-02.
FluidMinimize: Iter:  22  F: -0.003062805209374  |grad|_K:  2.223e-05  alpha:  3.406e-02  linmin:  9.192e-03  cgtest: -1.043e-01  t[s]:    123.09
FluidMinimize: Iter:  23  F: -0.003087449746628  |grad|_K:  4.281e-05  alpha:  6.060e-02  linmin: -4.482e-03  cgtest:  1.345e-01  t[s]:    123.59
FluidMinimize: Iter:  24  F: -0.003115488552237  |grad|_K:  3.949e-05  alpha:  8.343e-03  linmin: -1.716e-01  cgtest:  9.835e-01  t[s]:    124.10
FluidMinimize: Encountered beta<0, resetting CG.
FluidMinimize: Iter:  25  F: -0.003142932811526  |grad|_K:  3.126e-05  alpha:  1.998e-02  linmin:  1.111e-03  cgtest: -1.231e-02  t[s]:    124.61
FluidMinimize: Iter:  26  F: -0.003179010171015  |grad|_K:  4.822e-05  alpha:  4.025e-02  linmin: -7.765e-03  cgtest:  6.847e-02  t[s]:    125.11
FluidMinimize: Iter:  27  F: -0.003207182821663  |grad|_K:  4.873e-05  alpha:  6.069e-03  linmin: -1.650e-01  cgtest:  9.953e-01  t[s]:    125.61
FluidMinimize: Iter:  28  F: -0.003234646200855  |grad|_K:  6.302e-05  alpha:  1.721e-02  linmin:  3.510e-02  cgtest: -3.812e-01  t[s]:    126.12
FluidMinimize: Iter:  29  F: -0.003239684573226  |grad|_K:  7.471e-05  alpha:  3.011e-03  linmin: -5.827e-03  cgtest:  9.797e-01  t[s]:    126.62
FluidMinimize: Iter:  30  F: -0.003269459549937  |grad|_K:  2.816e-05  alpha:  5.552e-03  linmin: -2.581e-02  cgtest:  1.859e-01  t[s]:    127.12
FluidMinimize: 	Predicted alpha/alphaT>3.000000, increasing alphaT to 1.665480e-02.
FluidMinimize: 	Predicted alpha/alphaT>3.000000, increasing alphaT to 4.996440e-02.
FluidMinimize: 	Predicted alpha/alphaT>3.000000, increasing alphaT to 1.498932e-01.
FluidMinimize: Iter:  31  F: -0.003363885789316  |grad|_K:  5.296e-05  alpha:  7.992e-02  linmin: -4.922e-02  cgtest:  5.543e-02  t[s]:    128.28
FluidMinimize: Iter:  32  F: -0.003400588081054  |grad|_K:  3.790e-05  alpha:  5.872e-03  linmin: -1.057e-01  cgtest:  9.082e-01  t[s]:    128.80
FluidMinimize: Encountered beta<0, resetting CG.
FluidMinimize: 	Predicted alpha/alphaT>3.000000, increasing alphaT to 1.761629e-02.
FluidMinimize: Iter:  33  F: -0.003425778515599  |grad|_K:  4.990e-05  alpha:  1.971e-02  linmin: -2.349e-03  cgtest:  2.430e-02  t[s]:    129.55
FluidMinimize: Iter:  34  F: -0.003452018755304  |grad|_K:  4.396e-05  alpha:  9.083e-03  linmin: -1.202e-02  cgtest:  1.715e-01  t[s]:    130.05
FluidMinimize: 	Predicted alpha/alphaT>3.000000, increasing alphaT to 2.724897e-02.
FluidMinimize: Iter:  35  F: -0.003512112089379  |grad|_K:  1.682e-04  alpha:  3.837e-02  linmin:  4.558e-02  cgtest:  2.078e-01  t[s]:    130.76
FluidMinimize: Iter:  36  F: -0.003512113119194  |grad|_K:  1.682e-04  alpha:  6.406e-08  linmin: -2.643e-02  cgtest:  1.000e+00  t[s]:    131.27
FluidMinimize: 	Predicted alpha/alphaT>3.000000, increasing alphaT to 1.921887e-07.
FluidMinimize: 	Predicted alpha/alphaT>3.000000, increasing alphaT to 5.765660e-07.
FluidMinimize: 	Predicted alpha/alphaT>3.000000, increasing alphaT to 1.729698e-06.
FluidMinimize: 	Predicted alpha/alphaT>3.000000, increasing alphaT to 5.189094e-06.
FluidMinimize: 	Predicted alpha/alphaT>3.000000, increasing alphaT to 1.556728e-05.
FluidMinimize: 	Predicted alpha/alphaT>3.000000, increasing alphaT to 4.670184e-05.
FluidMinimize: Iter:  37  F: -0.003563707708164  |grad|_K:  4.470e-05  alpha:  1.783e-03  linmin: -6.770e-02  cgtest:  8.496e-01  t[s]:    132.89
FluidMinimize: Encountered beta<0, resetting CG.
FluidMinimize: 	Predicted alpha/alphaT>3.000000, increasing alphaT to 5.349651e-03.
FluidMinimize: Iter:  38  F: -0.003574412797577  |grad|_K:  3.481e-05  alpha:  5.975e-03  linmin: -1.259e-02  cgtest:  1.007e-01  t[s]:    133.63
FluidMinimize: 	Predicted alpha/alphaT>3.000000, increasing alphaT to 1.792395e-02.
FluidMinimize: Iter:  39  F: -0.003595743813508  |grad|_K:  7.219e-05  alpha:  1.906e-02  linmin:  1.570e-02  cgtest: -1.620e-01  t[s]:    134.33
FluidMinimize: Iter:  40  F: -0.003616084299162  |grad|_K:  9.949e-05  alpha:  3.943e-03  linmin: -1.925e-02  cgtest:  9.713e-01  t[s]:    134.84
FluidMinimize: Iter:  41  F: -0.003655648378964  |grad|_K:  3.789e-05  alpha:  4.073e-03  linmin: -2.795e-02  cgtest: -2.249e-01  t[s]:    135.34
FluidMinimize: 	Predicted alpha/alphaT>3.000000, increasing alphaT to 1.222021e-02.
FluidMinimize: Iter:  42  F: -0.003682053948506  |grad|_K:  1.183e-04  alpha:  2.312e-02  linmin:  3.036e-02  cgtest: -3.125e-01  t[s]:    136.11
FluidMinimize: Iter:  43  F: -0.003682086330265  |grad|_K:  1.185e-04  alpha:  4.303e-06  linmin: -1.500e-02  cgtest:  1.000e+00  t[s]:    136.64
FluidMinimize: 	Predicted alpha/alphaT>3.000000, increasing alphaT to 1.290799e-05.
FluidMinimize: 	Predicted alpha/alphaT>3.000000, increasing alphaT to 3.872396e-05.
FluidMinimize: 	Predicted alpha/alphaT>3.000000, increasing alphaT to 1.161719e-04.
FluidMinimize: 	Predicted alpha/alphaT>3.000000, increasing alphaT to 3.485156e-04.
FluidMinimize: 	Predicted alpha/alphaT>3.000000, increasing alphaT to 1.045547e-03.
FluidMinimize: Iter:  44  F: -0.003710322443086  |grad|_K:  2.997e-05  alpha:  2.119e-03  linmin: -4.585e-02  cgtest:  5.557e-01  t[s]:    138.26
FluidMinimize: Encountered beta<0, resetting CG.
FluidMinimize: 	Predicted alpha/alphaT>3.000000, increasing alphaT to 6.357336e-03.
FluidMinimize: Iter:  45  F: -0.003719991056032  |grad|_K:  3.601e-05  alpha:  1.219e-02  linmin:  1.019e-03  cgtest: -4.812e-03  t[s]:    139.00
FluidMinimize: 	Predicted alpha/alphaT>3.000000, increasing alphaT to 3.656523e-02.
FluidMinimize: Iter:  46  F: -0.003758394302231  |grad|_K:  1.930e-04  alpha:  7.521e-02  linmin:  6.016e-02  cgtest:  1.088e-01  t[s]:    139.73
FluidMinimize: 	Bad step direction: g.d > 0.
FluidMinimize: 	Undoing step.
FluidMinimize: 	Step failed: resetting search direction.
FluidMinimize: Iter:  47  F: -0.003758394302231  |grad|_K:  1.930e-04  alpha:  0.000e+00
FluidMinimize: 	Step increased F by 6.536942e-04, reducing alpha to 1.678334e-03.
FluidMinimize: Iter:  48  F: -0.003824606532412  |grad|_K:  5.830e-05  alpha:  1.678e-03  linmin: -5.385e-02  cgtest:  8.422e-01  t[s]:    140.77
FluidMinimize: Encountered beta<0, resetting CG.
FluidMinimize: 	Predicted alpha/alphaT>3.000000, increasing alphaT to 5.035001e-03.
FluidMinimize: Iter:  49  F: -0.003842231179575  |grad|_K:  4.792e-05  alpha:  5.772e-03  linmin: -9.104e-03  cgtest:  9.229e-02  t[s]:    141.51
FluidMinimize: Iter:  50  F: -0.003862344061468  |grad|_K:  5.090e-05  alpha:  1.095e-02  linmin:  2.751e-02  cgtest: -5.432e-01  t[s]:    142.01
FluidMinimize: Iter:  51  F: -0.003865603860577  |grad|_K:  5.668e-05  alpha:  2.732e-03  linmin: -2.203e-03  cgtest:  9.517e-01  t[s]:    142.51
FluidMinimize: Iter:  52  F: -0.003876369907289  |grad|_K:  3.532e-05  alpha:  3.695e-03  linmin: -7.788e-03  cgtest:  4.260e-02  t[s]:    143.01
FluidMinimize: 	Predicted alpha/alphaT>3.000000, increasing alphaT to 1.108492e-02.
FluidMinimize: Iter:  53  F: -0.003896225386436  |grad|_K:  3.942e-05  alpha:  1.769e-02  linmin:  7.007e-03  cgtest: -3.924e-01  t[s]:    143.74
FluidMinimize: Iter:  54  F: -0.003909585034001  |grad|_K:  5.023e-05  alpha:  1.162e-02  linmin: -3.007e-04  cgtest:  2.672e-01  t[s]:    144.26
FluidMinimize: 	Predicted alpha/alphaT>3.000000, increasing alphaT to 3.486895e-02.
FluidMinimize: Iter:  55  F: -0.003971175129649  |grad|_K:  5.194e-05  alpha:  1.997e-02  linmin: -2.125e-02  cgtest:  1.017e-01  t[s]:    145.01
FluidMinimize: Iter:  56  F: -0.003994200425225  |grad|_K:  5.050e-05  alpha:  8.853e-03  linmin:  2.848e-03  cgtest: -1.990e-01  t[s]:    145.52
FluidMinimize: Iter:  57  F: -0.004011095308709  |grad|_K:  5.915e-05  alpha:  7.536e-03  linmin:  4.182e-03  cgtest:  3.275e-01  t[s]:    146.04
FluidMinimize: Iter:  58  F: -0.004034166174759  |grad|_K:  5.535e-05  alpha:  7.820e-03  linmin: -2.183e-03  cgtest:  2.943e-01  t[s]:    146.55
FluidMinimize: Iter:  59  F: -0.004052904555918  |grad|_K:  5.026e-05  alpha:  6.960e-03  linmin: -7.830e-03  cgtest: -8.773e-02  t[s]:    147.05
FluidMinimize: Iter:  60  F: -0.004067116443524  |grad|_K:  3.988e-05  alpha:  5.901e-03  linmin:  1.368e-03  cgtest: -1.550e-01  t[s]:    147.56
FluidMinimize: Iter:  61  F: -0.004084298653216  |grad|_K:  4.733e-05  alpha:  1.217e-02  linmin: -4.602e-03  cgtest:  3.474e-01  t[s]:    148.06
FluidMinimize: Iter:  62  F: -0.004100016857631  |grad|_K:  5.578e-05  alpha:  8.054e-03  linmin: -1.364e-04  cgtest: -1.334e-01  t[s]:    148.57
FluidMinimize: Iter:  63  F: -0.004123885448918  |grad|_K:  5.299e-05  alpha:  8.898e-03  linmin:  1.106e-02  cgtest: -9.766e-02  t[s]:    149.09
FluidMinimize: Iter:  64  F: -0.004138440358441  |grad|_K:  5.321e-05  alpha:  7.029e-03  linmin:  1.048e-03  cgtest:  5.577e-01  t[s]:    149.59
FluidMinimize: Iter:  65  F: -0.004151131004704  |grad|_K:  4.853e-05  alpha:  5.249e-03  linmin: -1.693e-03  cgtest: -5.743e-02  t[s]:    150.09
FluidMinimize: Iter:  66  F: -0.004172313822934  |grad|_K:  3.758e-05  alpha:  1.037e-02  linmin:  4.945e-03  cgtest: -4.049e-01  t[s]:    150.60
FluidMinimize: Iter:  67  F: -0.004185421803755  |grad|_K:  4.196e-05  alpha:  1.167e-02  linmin: -4.095e-03  cgtest:  2.295e-01  t[s]:    151.11
FluidMinimize: Iter:  68  F: -0.004204993039976  |grad|_K:  6.701e-05  alpha:  1.220e-02  linmin:  9.304e-03  cgtest: -1.642e-01  t[s]:    151.61
FluidMinimize: Iter:  69  F: -0.004221240162968  |grad|_K:  5.199e-05  alpha:  4.221e-03  linmin: -5.485e-03  cgtest:  8.339e-01  t[s]:    152.12
FluidMinimize: Encountered beta<0, resetting CG.
FluidMinimize: Iter:  70  F: -0.004228902505888  |grad|_K:  3.399e-05  alpha:  3.253e-03  linmin: -1.123e-03  cgtest:  1.617e-02  t[s]:    152.65
FluidMinimize: 	Predicted alpha/alphaT>3.000000, increasing alphaT to 9.759598e-03.
FluidMinimize: Iter:  71  F: -0.004241745212359  |grad|_K:  3.061e-05  alpha:  1.279e-02  linmin:  8.284e-03  cgtest: -2.724e-01  t[s]:    153.38
FluidMinimize: Iter:  72  F: -0.004248862500766  |grad|_K:  3.584e-05  alpha:  9.933e-03  linmin: -1.227e-03  cgtest:  1.595e-01  t[s]:    153.88
FluidMinimize: Iter:  73  F: -0.004262610681794  |grad|_K:  4.659e-05  alpha:  1.220e-02  linmin:  6.171e-03  cgtest: -2.201e-01  t[s]:    154.39
FluidMinimize: Iter:  74  F: -0.004270605862415  |grad|_K:  3.091e-05  alpha:  5.161e-03  linmin:  7.283e-03  cgtest:  3.010e-01  t[s]:    154.89
FluidMinimize: 	Predicted alpha/alphaT>3.000000, increasing alphaT to 1.548386e-02.
FluidMinimize: Iter:  75  F: -0.004286823708124  |grad|_K:  5.572e-05  alpha:  1.931e-02  linmin: -1.846e-02  cgtest:  3.885e-02  t[s]:    155.62
FluidMinimize: Iter:  76  F: -0.004302113787449  |grad|_K:  3.466e-05  alpha:  3.893e-03  linmin: -4.133e-02  cgtest:  2.950e-01  t[s]:    156.12
FluidMinimize: Iter:  77  F: -0.004309619015309  |grad|_K:  2.664e-05  alpha:  6.050e-03  linmin: -9.724e-04  cgtest: -2.062e-01  t[s]:    156.63
FluidMinimize: Iter:  78  F: -0.004320733104463  |grad|_K:  3.331e-05  alpha:  1.700e-02  linmin: -6.094e-03  cgtest:  3.437e-01  t[s]:    157.13
FluidMinimize: Iter:  79  F: -0.004325902425584  |grad|_K:  2.510e-05  alpha:  4.300e-03  linmin: -1.796e-02  cgtest:  1.753e-01  t[s]:    157.64
FluidMinimize: Iter:  80  F: -0.004333045183716  |grad|_K:  2.636e-05  alpha:  1.091e-02  linmin: -2.797e-02  cgtest: -9.695e-02  t[s]:    158.14
FluidMinimize: Converged (|Delta F|<1.000000e-05 for 2 iters).

Fluid minimization # 1 changed total free energy by -2.197302e-03 at t[s]:    158.44

-------------------- Electronic Minimization # 1 ---------------------
	FillingsUpdate:  mu: -0.180574639  nElectrons: 339.000000
ElecMinimize: Iter:   0  F: -1819.940718831013555  |grad|_K:  1.615e-05  alpha:  1.000e+00
	FillingsUpdate:  mu: -0.177814834  nElectrons: 339.000000
	SubspaceRotationAdjust: set factor to 0.69
ElecMinimize: Iter:   1  F: -1819.940923329075304  |grad|_K:  7.926e-06  alpha:  1.636e-02  linmin:  2.528e-04  t[s]:    747.14
ElecMinimize: 	Predicted alpha/alphaT>3.000000, increasing alphaT to 4.907737e-02.
ElecMinimize: 	Predicted alpha/alphaT>3.000000, increasing alphaT to 1.472321e-01.
	FillingsUpdate:  mu: -0.170066795  nElectrons: 339.000000
	SubspaceRotationAdjust: set factor to 0.463
ElecMinimize: Iter:   2  F: -1819.942005278800707  |grad|_K:  6.694e-06  alpha:  3.575e-01  linmin: -4.734e-05  t[s]:   1363.79
	FillingsUpdate:  mu: -0.167968630  nElectrons: 339.000000
	SubspaceRotationAdjust: set factor to 0.279
ElecMinimize: Iter:   3  F: -1819.942154982737065  |grad|_K:  7.521e-06  alpha:  6.867e-02  linmin:  1.572e-05  t[s]:   1785.39
	FillingsUpdate:  mu: -0.170964532  nElectrons: 339.000000
	SubspaceRotationAdjust: set factor to 0.314
ElecMinimize: Iter:   4  F: -1819.942411465054420  |grad|_K:  2.983e-06  alpha:  9.417e-02  linmin:  1.177e-05  t[s]:   2201.01
	FillingsUpdate:  mu: -0.169986871  nElectrons: 339.000000
	SubspaceRotationAdjust: set factor to 0.189
ElecMinimize: Iter:   5  F: -1819.942521377036883  |grad|_K:  3.405e-06  alpha:  2.558e-01  linmin: -6.230e-07  t[s]:   2617.57
	FillingsUpdate:  mu: -0.168293790  nElectrons: 339.000000
	SubspaceRotationAdjust: set factor to 0.151
ElecMinimize: Iter:   6  F: -1819.942556197571548  |grad|_K:  1.571e-06  alpha:  6.204e-02  linmin:  3.637e-06  t[s]:   3037.01
ElecMinimize: 	Predicted alpha/alphaT>3.000000, increasing alphaT to 1.861249e-01.
	FillingsUpdate:  mu: -0.168156993  nElectrons: 339.000000
	SubspaceRotationAdjust: set factor to 0.127
	SubspaceRotationAdjust: resetting CG because factor has changed by 0.127267
ElecMinimize: 	State modified externally: resetting search direction.
ElecMinimize: Iter:   7  F: -1819.942595323120486  |grad|_K:  1.293e-06  alpha:  3.272e-01
	FillingsUpdate:  mu: -0.168803414  nElectrons: 339.000000
	SubspaceRotationAdjust: set factor to 0.117
ElecMinimize: Iter:   8  F: -1819.942606201584113  |grad|_K:  7.266e-07  alpha:  1.342e-01  linmin: -4.987e-06  t[s]:   4127.53
	FillingsUpdate:  mu: -0.168514383  nElectrons: 339.000000
	SubspaceRotationAdjust: set factor to 0.125
ElecMinimize: Iter:   9  F: -1819.942614343650121  |grad|_K:  4.575e-07  alpha:  3.182e-01  linmin:  1.398e-06  t[s]:   4549.40
	FillingsUpdate:  mu: -0.168606219  nElectrons: 339.000000
	SubspaceRotationAdjust: set factor to 0.161
ElecMinimize: Iter:  10  F: -1819.942623084054048  |grad|_K:  4.982e-07  alpha:  8.615e-01  linmin: -9.687e-07  t[s]:   4971.89
ElecMinimize: Converged (|Delta F|<1.000000e-05 for 2 iters).
Setting wave functions to eigenvectors of Hamiltonian

Electronic minimization # 1 changed total free energy by -1.904253e-03 at t[s]:   4989.84

---------------------- Fluid Minimization # 2 -----------------------
FluidMinimize: Iter:   0  F: -0.008679644143924  |grad|_K:  1.461e-04  alpha:  1.000e+00
FluidMinimize: Iter:   1  F: -0.008679644143924  |grad|_K:  1.461e-04  alpha:  3.707e-25  linmin: -1.114e-01  cgtest:  1.000e+00  t[s]:   4990.64
FluidMinimize: Encountered beta<0, resetting CG.
FluidMinimize: 	Step increased F by 1.214306e-17, reducing alpha to 3.706766e-26.
FluidMinimize: 	Step increased F by 6.938894e-18, reducing alpha to 3.706766e-27.
FluidMinimize: 	Step increased F by 1.214306e-17, reducing alpha to 3.706766e-28.
FluidMinimize: 	Step increased F by 1.214306e-17, reducing alpha to 3.706766e-29.
FluidMinimize: 	Step increased F by 6.938894e-18, reducing alpha to 3.706766e-30.
FluidMinimize: 	Step increased F by 1.214306e-17, reducing alpha to 3.706766e-31.
FluidMinimize: 	Step failed to reduce F after 6 attempts. Quitting step.
FluidMinimize: 	Undoing step.
FluidMinimize: 	Step failed along negative gradient direction.
FluidMinimize: Probably at roundoff error limit. (Stopping)

Fluid minimization # 2 changed total free energy by -2.255141e-17 at t[s]:   4992.94

-------------------- Electronic Minimization # 2 ---------------------
	FillingsUpdate:  mu: -0.167943917  nElectrons: 339.000000
ElecMinimize: Iter:   0  F: -1819.942592875126820  |grad|_K:  2.058e-06  alpha:  1.000e+00
	FillingsUpdate:  mu: -0.167763915  nElectrons: 339.000000
	SubspaceRotationAdjust: set factor to 0.096
ElecMinimize: Iter:   1  F: -1819.942622153119828  |grad|_K:  1.361e-06  alpha:  1.431e-01  linmin:  3.943e-04  t[s]:   5584.70
	FillingsUpdate:  mu: -0.168898643  nElectrons: 339.000000
	SubspaceRotationAdjust: set factor to 0.0985
ElecMinimize: Iter:   2  F: -1819.942635546571637  |grad|_K:  4.301e-07  alpha:  1.496e-01  linmin: -1.872e-05  t[s]:   6006.23
ElecMinimize: 	Predicted alpha/alphaT>3.000000, increasing alphaT to 4.488438e-01.
	FillingsUpdate:  mu: -0.168615898  nElectrons: 339.000000
	SubspaceRotationAdjust: set factor to 0.131
ElecMinimize: Iter:   3  F: -1819.942640069792333  |grad|_K:  3.040e-07  alpha:  5.046e-01  linmin:  2.015e-05  t[s]:   6518.47
	FillingsUpdate:  mu: -0.168380903  nElectrons: 339.000000
	SubspaceRotationAdjust: set factor to 0.0942
ElecMinimize: Iter:   4  F: -1819.942641529376942  |grad|_K:  3.198e-07  alpha:  3.259e-01  linmin:  3.579e-06  t[s]:   6931.28
ElecMinimize: Converged (|Delta F|<1.000000e-05 for 2 iters).
Setting wave functions to eigenvectors of Hamiltonian

Electronic minimization # 2 changed total free energy by -1.844532e-05 at t[s]:   6949.29

---------------------- Fluid Minimization # 3 -----------------------
FluidMinimize: Iter:   0  F: -0.008847480993271  |grad|_K:  1.521e-04  alpha:  1.000e+00
FluidMinimize: Iter:   1  F: -0.008847480993271  |grad|_K:  1.521e-04  alpha:  3.347e-22  linmin: -1.104e-01  cgtest:  1.000e+00  t[s]:   6950.09
FluidMinimize: Encountered beta<0, resetting CG.
FluidMinimize: Iter:   2  F: -0.008847480993271  |grad|_K:  1.521e-04  alpha:  3.347e-22  linmin: -1.104e-01  cgtest:  1.000e+00  t[s]:   6950.63
FluidMinimize: Converged (|Delta F|<1.844532e-07 for 2 iters).

Fluid minimization # 3 changed total free energy by -1.214306e-17 at t[s]:   6950.92

-------------------- Electronic Minimization # 3 ---------------------
	FillingsUpdate:  mu: -0.174164671  nElectrons: 339.000000
ElecMinimize: Iter:   0  F: -1819.941009765449280  |grad|_K:  1.658e-05  alpha:  1.000e+00
	FillingsUpdate:  mu: -0.169341464  nElectrons: 339.000000
	SubspaceRotationAdjust: set factor to 0.236
ElecMinimize: Iter:   1  F: -1819.942586761890880  |grad|_K:  1.647e-06  alpha:  1.188e-01  linmin:  1.536e-03  t[s]:   7543.71
	FillingsUpdate:  mu: -0.168470050  nElectrons: 339.000000
	SubspaceRotationAdjust: set factor to 0.294
ElecMinimize: Iter:   2  F: -1819.942632017031201  |grad|_K:  6.675e-07  alpha:  3.464e-01  linmin:  1.141e-03  t[s]:   7960.36
	FillingsUpdate:  mu: -0.167983807  nElectrons: 339.000000
	SubspaceRotationAdjust: set factor to 0.191
ElecMinimize: Iter:   3  F: -1819.942637351085523  |grad|_K:  9.879e-07  alpha:  2.484e-01  linmin:  5.114e-06  t[s]:   8376.76
	FillingsUpdate:  mu: -0.168288674  nElectrons: 339.000000
	SubspaceRotationAdjust: set factor to 0.0985
ElecMinimize: Iter:   4  F: -1819.942641643114712  |grad|_K:  3.131e-07  alpha:  9.074e-02  linmin: -1.254e-05  t[s]:   8791.99
ElecMinimize: 	Predicted alpha/alphaT>3.000000, increasing alphaT to 2.722343e-01.
	FillingsUpdate:  mu: -0.168350133  nElectrons: 339.000000
	SubspaceRotationAdjust: set factor to 0.0893
ElecMinimize: Iter:   5  F: -1819.942643845413386  |grad|_K:  1.802e-07  alpha:  4.639e-01  linmin:  2.547e-05  t[s]:   9308.60
	FillingsUpdate:  mu: -0.168354769  nElectrons: 339.000000
	SubspaceRotationAdjust: set factor to 0.0805
ElecMinimize: Iter:   6  F: -1819.942644456207063  |grad|_K:  1.234e-07  alpha:  3.885e-01  linmin:  3.834e-05  t[s]:   9725.17
	FillingsUpdate:  mu: -0.168266229  nElectrons: 339.000000
	SubspaceRotationAdjust: set factor to 0.0526
ElecMinimize: Iter:   7  F: -1819.942644630411223  |grad|_K:  7.727e-08  alpha:  2.357e-01  linmin:  4.259e-05  t[s]:  10145.56
	FillingsUpdate:  mu: -0.168300506  nElectrons: 339.000000
	SubspaceRotationAdjust: set factor to 0.0708
ElecMinimize: Iter:   8  F: -1819.942644741486902  |grad|_K:  4.082e-08  alpha:  3.838e-01  linmin: -8.445e-05  t[s]:  10563.43
ElecMinimize: Converged (|Delta F|<1.844532e-07 for 2 iters).
Setting wave functions to eigenvectors of Hamiltonian

Electronic minimization # 3 changed total free energy by -3.212110e-06 at t[s]:  10582.38

Fluid<-->Electron self-consistency loop converged to 1.000000e-05 hartrees after 3 minimization pairs at t[s]:  10582.38.

# Ionic positions in lattice coordinates:
ion O   0.679701616657449   0.487607256772032   0.327059541831774 1
ion O   0.428474312960427   0.721441492040712   0.327743053121101 1
ion C   0.499946524310331   0.502264558113185   0.302255963703784 1
ion H   0.411163661427989   0.340052378698724   0.315425561820785 1
ion H   0.729865839880594   0.333892038857797   0.304208379018989 1
ion H   0.301305039252737   0.728609518761278   0.304489347999201 1
ion Pt   0.000000000000000   0.000000000000000  -0.166660000000000 0
ion Pt   0.000000000000000   0.500000000000000  -0.166660000000000 0
ion Pt   0.500000000000000   0.000000000000000  -0.166660000000000 0
ion Pt   0.500000000000000   0.500000000000000  -0.166660000000000 0
ion Pt   0.250000000000000   0.250000000000000  -0.083330000000000 0
ion Pt   0.250000000000000   0.750000000000000  -0.083330000000000 0
ion Pt   0.750000000000000   0.250000000000000  -0.083330000000000 0
ion Pt   0.750000000000000   0.750000000000000  -0.083330000000000 0
ion Pt   0.000095816471271  -0.000274989129935   0.007682058961751 1
ion Pt  -0.000165068371681   0.499737709720761   0.008173374843697 1
ion Pt   0.499780594245307  -0.000120987389739   0.009058683203543 1
ion Pt   0.499897826849534   0.499833709636970   0.009783805258811 1
ion Pt   0.246274738991983   0.247299724000643   0.100811712750352 1
ion Pt   0.247335430514967   0.750958158654680   0.100722951779771 1
ion Pt   0.754120714194280   0.248183030058291   0.100754328493425 1
ion Pt   0.753659913205309   0.749632633238199   0.100667775291878 1
ion Pt  -0.000158099065868  -0.000350541054925   0.186675401730390 1
ion Pt   0.002089461734276   0.500398526227387   0.186088854735816 1
ion Pt   0.502280583428559  -0.002240294834681   0.183265566759387 1
ion Pt   0.499218038894946   0.494862014504384   0.180697314669622 1


# Forces in Lattice coordinates:
force O  -0.021625867315912  -0.010978371303711   0.203749401310265 1
force O  -0.042651862597602  -0.025411479182692   0.113806857736389 1
force C   0.000516973209175   0.017362952471849   0.023714177692201 1
force H   0.018502699081669   0.028026925282978   0.183434401172347 1
force H   0.042001539131599  -0.027158108112308   0.114297412192224 1
force H  -0.016684694236608   0.027548128426661   0.175727494397514 1
force Pt  -0.000669693974474   0.000306132580598  -0.176579159474882 0
force Pt   0.001601871948592   0.000261305429358  -0.162557467282038 0
force Pt   0.003097386972616   0.001257351986772  -0.122919307405778 0
force Pt  -0.000202181491878  -0.001289186585880  -0.152796337149010 0
force Pt   0.022641960470231   0.007212381902784  -0.010413127503784 0
force Pt   0.022584835713283  -0.008826139748910  -0.017626654081820 0
force Pt  -0.024106291210818   0.005665463115935  -0.009346477131728 0
force Pt  -0.023179693876735  -0.007585512874635  -0.016197610540146 0
force Pt   0.000004242132763  -0.002602839795163   0.021909207385582 1
force Pt   0.003490053258371  -0.000434925151365   0.034520023876305 1
force Pt   0.003562229885202  -0.002048876582992   0.067300672467592 1
force Pt   0.001070427805191  -0.002769053634757  -0.028022991899992 1
force Pt  -0.015932068410851  -0.006153710537090  -0.058439935818075 1
force Pt  -0.021041470278065   0.001029679223092  -0.063507608583597 1
force Pt   0.020748816726715  -0.007613165903664  -0.060888686462091 1
force Pt   0.021432288426444   0.000355379953575  -0.054769061323882 1
force Pt  -0.002206286214313  -0.002815433301541   0.095095612760569 1
force Pt  -0.007095392974610  -0.004718563809702   0.061984214232346 1
force Pt   0.001285094530671  -0.006855299972661  -0.005152869888490 1
force Pt   0.010341174656994   0.014656249548333  -0.088830259158222 1

# Energy components:
   A_diel =       -0.0089223854239084
   Eewald =    13596.3779379090137809
       EH =    15214.5158709075076331
     Eloc =   -30953.3848673368411255
      Enl =      -15.5492398352318943
      Exc =     -576.4299369794624681
 Exc_core =      324.9917421037038707
       KE =      589.7740315332947603
  MuShift =        0.0000000000006794
-------------------------------------
     Etot =    -1819.7133840834392231
       TS =        0.2292606580477817
-------------------------------------
        F =    -1819.9426447414869017

IonicMinimize: Iter:   0  F: -1819.942644741486902  |grad|_K:  2.148e-03  t[s]:  10632.66
IonicMinimize: None of the convergence criteria satisfied after 0 iterations.

#--- Lowdin population analysis ---
# oxidation-state O -0.386 -0.373
# oxidation-state C +0.299
# oxidation-state H +0.231 +0.444 +0.447
# oxidation-state Pt +0.067 +0.068 +0.065 +0.063 -0.048 -0.048 -0.048 -0.048 +0.002 +0.002 +0.004 -0.016 -0.049 -0.057 -0.057 -0.046 -0.007 -0.021 -0.007 -0.056


Dumping '100_1-Solvated.ionpos' ... done
Dumping '100_1-Solvated.n' ... done
Dumping '100_1-Solvated.eigStats' ... 
	eMin: -2.124353 at state 0 ( [ +0.000000 +0.000000 +0.000000 ] spin 0 )
	HOMO: -0.169049 at state 3 ( [ +0.250000 +0.000000 +0.000000 ] spin 0 )
	mu  : -0.168301
	LUMO: -0.167727 at state 0 ( [ +0.000000 +0.000000 +0.000000 ] spin 0 )
	eMax: +0.370392 at state 9 ( [ +0.500000 +0.500000 +0.000000 ] spin 0 )
	HOMO-LUMO gap: +0.001321
	Optical gap  : +0.001386 at state 0 ( [ +0.000000 +0.000000 +0.000000 ] spin 0 )
Dumping '100_1-Solvated.Ecomponents' ... done
End date and time: Sun May 26 11:04:23 2019  (Duration: 0-2:58:12.45)
Done!
