--------------------------------------------------------------------------
Initialization of PSM library failed.

  Error: PSM is in the finalized state
--------------------------------------------------------------------------
--------------------------------------------------------------------------
The OpenFabrics (openib) BTL failed to initialize while trying to
allocate some locked memory.  This typically can indicate that the
memlock limits are set too low.  For most HPC installations, the
memlock limits should be set to "unlimited".  The failure occured
here:

  Local host:    node2008
  OMPI source:   btl_openib.c:753
  Function:      ompi_free_list_init_ex_new()
  Device:        qib0
  Memlock limit: 65536

You may need to consult with your system administrator to get this
problem fixed.  This FAQ entry on the Open MPI web site may also be
helpful:

    http://www.open-mpi.org/faq/?category=openfabrics#ib-locked-pages
--------------------------------------------------------------------------

*************** JDFTx 1.4.2 (git hash 74b6e54) ***************

Start date and time: Fri May 24 07:20:46 2019
Executable /home/jfm343/JDFTXDIR/build/jdftx with command-line: -i Vacuum.in
Running on hosts (process indices):  node2008.physics.cornell.edu (0)
Divided in process groups (process indices):  0 (0)
Resource initialization completed at t[s]:      0.00
Run totals: 1 processes, 12 threads, 0 GPUs


Input parsed successfully to the following command list (including defaults):

basis kpoint-dependent
coords-type Lattice
core-overlap-check vector
coulomb-interaction Slab 001
coulomb-truncation-embed 0 0 0
davidson-band-ratio 1.1
dump End State IonicPositions ElecDensity EigStats Ecomponents
dump-name 100_1-Vacuum.$VAR
elec-cutoff 20 100
elec-eigen-algo Davidson
elec-ex-corr gga-PBEsol
elec-smearing Fermi 0.01
electronic-minimize  \
	dirUpdateScheme      FletcherReeves \
	linminMethod         DirUpdateRecommended \
	nIterations          200 \
	history              15 \
	knormThreshold       0 \
	energyDiffThreshold  1e-08 \
	nEnergyDiff          2 \
	alphaTstart          1 \
	alphaTmin            1e-10 \
	updateTestStepSize   yes \
	alphaTreduceFactor   0.1 \
	alphaTincreaseFactor 3 \
	nAlphaAdjustMax      3 \
	wolfeEnergy          0.0001 \
	wolfeGradient        0.9 \
	fdTest               no
exchange-regularization WignerSeitzTruncated
fluid None
fluid-ex-corr lda-TF lda-PZ
fluid-gummel-loop 10 1.000000e-05
fluid-minimize  \
	dirUpdateScheme      PolakRibiere \
	linminMethod         DirUpdateRecommended \
	nIterations          100 \
	history              15 \
	knormThreshold       0 \
	energyDiffThreshold  0 \
	nEnergyDiff          2 \
	alphaTstart          1 \
	alphaTmin            1e-10 \
	updateTestStepSize   yes \
	alphaTreduceFactor   0.1 \
	alphaTincreaseFactor 3 \
	nAlphaAdjustMax      3 \
	wolfeEnergy          0.0001 \
	wolfeGradient        0.9 \
	fdTest               no
fluid-solvent H2O 55.338 ScalarEOS \
	epsBulk 78.4 \
	pMol 0.92466 \
	epsInf 1.77 \
	Pvap 1.06736e-10 \
	sigmaBulk 4.62e-05 \
	Rvdw 2.61727 \
	Res 1.42 \
	tauNuc 343133 \
	omegaEl 0.55124 \
	gammaEl 0.257245
forces-output-coords Positions
ion O   0.684370000000000   0.479770000000000   0.325120000000000 1
ion O   0.424030000000000   0.721820000000000   0.325120000000000 1
ion C   0.500000000000000   0.500000000000000   0.295860000000000 1
ion H   0.417670000000000   0.346900000000000   0.317590000000000 1
ion H   0.731190000000000   0.325220000000000   0.303630000000000 1
ion H   0.297620000000000   0.728340000000000   0.303630000000000 1
ion Pt   0.000000000000000   0.000000000000000  -0.166660000000000 0
ion Pt   0.000000000000000   0.500000000000000  -0.166660000000000 0
ion Pt   0.500000000000000   0.000000000000000  -0.166660000000000 0
ion Pt   0.500000000000000   0.500000000000000  -0.166660000000000 0
ion Pt   0.250000000000000   0.250000000000000  -0.083330000000000 0
ion Pt   0.250000000000000   0.750000000000000  -0.083330000000000 0
ion Pt   0.750000000000000   0.250000000000000  -0.083330000000000 0
ion Pt   0.750000000000000   0.750000000000000  -0.083330000000000 0
ion Pt   0.000000000000000   0.000000000000000   0.000000000000000 1
ion Pt   0.000000000000000   0.500000000000000   0.000000000000000 1
ion Pt   0.500000000000000   0.000000000000000   0.000000000000000 1
ion Pt   0.500000000000000   0.500000000000000   0.000000000000000 1
ion Pt   0.250000000000000   0.250000000000000   0.083330000000000 1
ion Pt   0.250000000000000   0.750000000000000   0.083330000000000 1
ion Pt   0.750000000000000   0.250000000000000   0.083330000000000 1
ion Pt   0.750000000000000   0.750000000000000   0.083330000000000 1
ion Pt   0.000000000000000   0.000000000000000   0.166660000000000 1
ion Pt   0.000000000000000   0.500000000000000   0.166660000000000 1
ion Pt   0.500000000000000   0.000000000000000   0.166660000000000 1
ion Pt   0.500000000000000   0.500000000000000   0.166660000000000 1
ion-species GBRV/$ID_pbesol.uspp
ion-width 0
ionic-minimize  \
	dirUpdateScheme      L-BFGS \
	linminMethod         DirUpdateRecommended \
	nIterations          8 \
	history              15 \
	knormThreshold       0.0001 \
	energyDiffThreshold  1e-06 \
	nEnergyDiff          2 \
	alphaTstart          1 \
	alphaTmin            1e-10 \
	updateTestStepSize   yes \
	alphaTreduceFactor   0.1 \
	alphaTincreaseFactor 3 \
	nAlphaAdjustMax      3 \
	wolfeEnergy          0.0001 \
	wolfeGradient        0.9 \
	fdTest               no
kpoint   0.000000000000   0.000000000000   0.000000000000  1.00000000000000
kpoint-folding 4 4 1 
latt-move-scale 1 1 1
latt-scale 1 1 1 
lattice Triclinic 13.6552 10.3852 31.1556 90 90 90
lattice-minimize  \
	dirUpdateScheme      L-BFGS \
	linminMethod         DirUpdateRecommended \
	nIterations          0 \
	history              15 \
	knormThreshold       0 \
	energyDiffThreshold  1e-06 \
	nEnergyDiff          2 \
	alphaTstart          1 \
	alphaTmin            1e-10 \
	updateTestStepSize   yes \
	alphaTreduceFactor   0.1 \
	alphaTincreaseFactor 3 \
	nAlphaAdjustMax      3 \
	wolfeEnergy          0.0001 \
	wolfeGradient        0.9 \
	fdTest               no
lcao-params -1 1e-06 0.01
pcm-variant GLSSA13
spintype no-spin
subspace-rotation-factor 1 yes
symmetries automatic
symmetry-threshold 0.0001



---------- Setting up symmetries ----------

Found 8 point-group symmetries of the bravais lattice
Found 1 space-group symmetries with basis
Applied RMS atom displacement 0 bohrs to make symmetries exact.

---------- Initializing the Grid ----------
R = 
[    13.6552          0          0  ]
[          0    10.3852          0  ]
[          0          0    31.1556  ]
unit cell volume = 4418.23
G =
[   0.460132          0          0  ]
[          0   0.605013          0  ]
[          0          0   0.201671  ]
Minimum fftbox size, Smin = [  64  48  144  ]
Chosen fftbox size, S = [  64  48  144  ]

---------- Initializing tighter grid for wavefunction operations ----------
R = 
[    13.6552          0          0  ]
[          0    10.3852          0  ]
[          0          0    31.1556  ]
unit cell volume = 4418.23
G =
[   0.460132          0          0  ]
[          0   0.605013          0  ]
[          0          0   0.201671  ]
Minimum fftbox size, Smin = [  56  44  128  ]
Chosen fftbox size, S = [  56  48  128  ]

---------- Exchange Correlation functional ----------
Initalized PBEsol GGA exchange.
Initalized PBEsol GGA correlation.

---------- Setting up pseudopotentials ----------
Width of ionic core gaussian charges (only for fluid interactions / plotting) set to 0

Reading pseudopotential file '/home/jfm343/JDFTXDIR/build/pseudopotentials/GBRV/o_pbesol.uspp':
  Title: O.  Created by USPP 7.3.6 on 3-2-2014
  Reference state energy: -15.849885.  6 valence electrons in orbitals:
    |200>  occupation: 2  eigenvalue: -0.873214
    |210>  occupation: 4  eigenvalue: -0.330058
  lMax: 2  lLocal: 2  QijEcut: 6
  5 projectors sampled on a log grid with 511 points:
    l: 0  eig: -0.873214  rCut: 1.25
    l: 0  eig: 0.000000  rCut: 1.25
    l: 1  eig: -0.330058  rCut: 1.25
    l: 1  eig: 0.000000  rCut: 1.25
    l: 2  eig: 1.000000  rCut: 1.25
  Partial core density with radius 0.7
  Transforming core density to a uniform radial grid of dG=0.02 with 1269 points.
  Transforming local potential to a uniform radial grid of dG=0.02 with 1269 points.
  Transforming nonlocal projectors to a uniform radial grid of dG=0.02 with 432 points.
  Transforming density augmentations to a uniform radial grid of dG=0.02 with 1269 points.
  Transforming atomic orbitals to a uniform radial grid of dG=0.02 with 432 points.
  Core radius for overlap checks: 1.25 bohrs.

Reading pseudopotential file '/home/jfm343/JDFTXDIR/build/pseudopotentials/GBRV/c_pbesol.uspp':
  Title: C.  Created by USPP 7.3.6 on 3-2-2014
  Reference state energy: -5.383511.  4 valence electrons in orbitals:
    |200>  occupation: 2  eigenvalue: -0.501126
    |210>  occupation: 2  eigenvalue: -0.192448
  lMax: 1  lLocal: 2  QijEcut: 5
  4 projectors sampled on a log grid with 503 points:
    l: 0  eig: -0.501126  rCut: 1.3
    l: 0  eig: 0.000000  rCut: 1.3
    l: 1  eig: -0.192448  rCut: 1.3
    l: 1  eig: 0.000000  rCut: 1.3
  Partial core density with radius 1.1
  Transforming core density to a uniform radial grid of dG=0.02 with 1269 points.
  Transforming local potential to a uniform radial grid of dG=0.02 with 1269 points.
  Transforming nonlocal projectors to a uniform radial grid of dG=0.02 with 432 points.
  Transforming density augmentations to a uniform radial grid of dG=0.02 with 1269 points.
  Transforming atomic orbitals to a uniform radial grid of dG=0.02 with 432 points.
  Core radius for overlap checks: 1.30 bohrs.

Reading pseudopotential file '/home/jfm343/JDFTXDIR/build/pseudopotentials/GBRV/h_pbesol.uspp':
  Title: H.  Created by USPP 7.3.6 on 22-9-15
  Reference state energy: -0.449841.  1 valence electrons in orbitals:
    |100>  occupation: 1  eigenvalue: -0.232690
  lMax: 0  lLocal: 1  QijEcut: 6
  2 projectors sampled on a log grid with 395 points:
    l: 0  eig: -0.232690  rCut: 1.2
    l: 0  eig: 1.000000  rCut: 1.2
  Transforming local potential to a uniform radial grid of dG=0.02 with 1269 points.
  Transforming nonlocal projectors to a uniform radial grid of dG=0.02 with 432 points.
  Transforming density augmentations to a uniform radial grid of dG=0.02 with 1269 points.
  Transforming atomic orbitals to a uniform radial grid of dG=0.02 with 432 points.
  Core radius for overlap checks: 1.20 bohrs.

Reading pseudopotential file '/home/jfm343/JDFTXDIR/build/pseudopotentials/GBRV/pt_pbesol.uspp':
  Title: Pt.  Created by USPP 7.3.6 on 22-9-15
  Reference state energy: -104.899005.  16 valence electrons in orbitals:
    |510>  occupation: 6  eigenvalue: -2.158847
    |520>  occupation: 9.5  eigenvalue: -0.336311
    |600>  occupation: 0  eigenvalue: -0.320324
    |610>  occupation: 0  eigenvalue: -0.119800
  lMax: 2  lLocal: 3  QijEcut: 5.5
  6 projectors sampled on a log grid with 745 points:
    l: 0  eig: -0.320324  rCut: 2.45
    l: 0  eig: 1.500000  rCut: 2.45
    l: 1  eig: -2.158847  rCut: 1.6
    l: 1  eig: -0.119800  rCut: 1.6
    l: 2  eig: -0.500000  rCut: 1.6
    l: 2  eig: -0.336311  rCut: 1.6
  Partial core density with radius 1.1
  Transforming core density to a uniform radial grid of dG=0.02 with 1269 points.
  Transforming local potential to a uniform radial grid of dG=0.02 with 1269 points.
  Transforming nonlocal projectors to a uniform radial grid of dG=0.02 with 432 points.
  Transforming density augmentations to a uniform radial grid of dG=0.02 with 1269 points.
  Transforming atomic orbitals to a uniform radial grid of dG=0.02 with 432 points.
  Core radius for overlap checks: 2.45 bohrs.

Initialized 4 species with 26 total atoms.

Folded 1 k-points by 4x4x1 to 16 k-points.

---------- Setting up k-points, bands, fillings ----------
Adding inversion symmetry to k-mesh for non-inversion-symmetric unit cell.
Reduced to 10 k-points under symmetry. 
Computing the number of bands and number of electrons
Calculating initial fillings.
nElectrons: 339.000000   nBands: 255   nStates: 10

----- Setting up reduced wavefunction bases (one per k-point) -----
average nbasis = 18876.562 , ideal nbasis = 18875.034

---------- Setting up coulomb interaction ----------
Setting up double-sized grid for truncated Coulomb potentials:
R = 
[    13.6552          0          0  ]
[          0    10.3852          0  ]
[          0          0    62.3112  ]
unit cell volume = 8836.47
G =
[   0.460132          0          0  ]
[          0   0.605013          0  ]
[          0          0   0.100836  ]
Chosen fftbox size, S = [  64  48  288  ]
Integer grid location selected as the embedding center:
   Grid: [  0  0  0  ]
   Lattice: [  0  0  0  ]
   Cartesian: [  0  0  0  ]
Constructing Wigner-Seitz cell: 6 faces (6 quadrilaterals, 0 hexagons)
Range-separation parameter for embedded mesh potentials due to point charges: 0.586809 bohrs.
Initialized slab truncation along lattice direction 001

---------- Setting up 2D ewald sum ----------
Optimum gaussian width for ewald sums = 7.104097 bohr.
Real space sums over 221 unit cells with max indices [  6  8  0  ]
Reciprocal space sums over 81 terms with max indices [  4  4  0  ]

---------- Allocating electronic variables ----------
Initializing wave functions:  linear combination of atomic orbitals
O pseudo-atom occupations:   s ( 2 )  p ( 4 )
C pseudo-atom occupations:   s ( 2 )  p ( 2 )
H pseudo-atom occupations:   s ( 1 )
Pt pseudo-atom occupations:   s ( 0 )  p ( 6 0 )  d ( 10 )
	FillingsUpdate:  mu: -1.727278614  nElectrons: 339.000000
LCAOMinimize: Iter:   0  F: -1808.0537352372612077  |grad|_K:  2.403e-02  alpha:  1.000e+00
LCAOMinimize: 	Step increased F by 6.548610e+01, reducing alpha to 1.705858e-02.
	FillingsUpdate:  mu: -1.299122534  nElectrons: 339.000000
LCAOMinimize: Iter:   1  F: -1812.8638191398986237  |grad|_K:  1.545e-02  alpha:  1.706e-02  linmin: -2.540e-01  cgtest:  9.430e-01  t[s]:    416.39
LCAOMinimize: Encountered beta<0, resetting CG.
LCAOMinimize: 	Predicted alpha/alphaT>3.000000, increasing alphaT to 5.117575e-02.
	FillingsUpdate:  mu: -0.505925864  nElectrons: 339.000000
LCAOMinimize: Iter:   2  F: -1816.7952446030906231  |grad|_K:  1.357e-02  alpha:  5.016e-02  linmin:  1.619e-02  cgtest:  8.102e-02  t[s]:    546.19
	FillingsUpdate:  mu: -0.499080589  nElectrons: 339.000000
LCAOMinimize: Iter:   3  F: -1817.6618986503654014  |grad|_K:  4.563e-03  alpha:  1.322e-02  linmin: -7.252e-02  cgtest:  3.097e-01  t[s]:    647.62
LCAOMinimize: 	Predicted alpha/alphaT>3.000000, increasing alphaT to 3.966874e-02.
LCAOMinimize: 	Predicted alpha/alphaT>3.000000, increasing alphaT to 1.190062e-01.
	FillingsUpdate:  mu: -0.443206006  nElectrons: 339.000000
LCAOMinimize: Iter:   4  F: -1818.7516252341617928  |grad|_K:  3.373e-03  alpha:  1.549e-01  linmin: -2.329e-02  cgtest:  4.769e-02  t[s]:    801.48
	FillingsUpdate:  mu: -0.257867227  nElectrons: 339.000000
LCAOMinimize: Iter:   5  F: -1819.0608731776378590  |grad|_K:  1.198e-03  alpha:  6.138e-02  linmin: -1.547e-01  cgtest:  5.987e-01  t[s]:    903.27
LCAOMinimize: Encountered beta<0, resetting CG.
	FillingsUpdate:  mu: -0.182204297  nElectrons: 339.000000
LCAOMinimize: Iter:   6  F: -1819.1206619428751310  |grad|_K:  2.691e-03  alpha:  1.300e-01  linmin:  4.277e-03  cgtest: -9.005e-04  t[s]:   1003.09
	FillingsUpdate:  mu: -0.173150260  nElectrons: 339.000000
LCAOMinimize: Iter:   7  F: -1819.1812612797837119  |grad|_K:  1.566e-03  alpha:  3.182e-02  linmin:  2.373e-02  cgtest: -2.061e-01  t[s]:   1105.35
	FillingsUpdate:  mu: -0.206237560  nElectrons: 339.000000
LCAOMinimize: Iter:   8  F: -1819.2287736699634024  |grad|_K:  1.117e-03  alpha:  7.198e-02  linmin: -5.105e-04  cgtest:  4.049e-01  t[s]:   1206.80
	FillingsUpdate:  mu: -0.211243599  nElectrons: 339.000000
LCAOMinimize: Iter:   9  F: -1819.2462706695562247  |grad|_K:  1.374e-03  alpha:  4.327e-02  linmin:  5.460e-04  cgtest: -2.605e-02  t[s]:   1309.36
	FillingsUpdate:  mu: -0.232178395  nElectrons: 339.000000
LCAOMinimize: Iter:  10  F: -1819.2653867437973076  |grad|_K:  4.771e-04  alpha:  3.092e-02  linmin:  3.972e-04  cgtest:  9.949e-02  t[s]:   1410.26
	FillingsUpdate:  mu: -0.207099203  nElectrons: 339.000000
LCAOMinimize: Iter:  11  F: -1819.2716294732140341  |grad|_K:  2.058e-04  alpha:  8.403e-02  linmin:  3.941e-03  cgtest:  1.435e-02  t[s]:   1512.74
	FillingsUpdate:  mu: -0.212686615  nElectrons: 339.000000
LCAOMinimize: Iter:  12  F: -1819.2728829925081300  |grad|_K:  3.851e-04  alpha:  9.088e-02  linmin:  4.796e-04  cgtest:  3.092e-03  t[s]:   1614.70
	FillingsUpdate:  mu: -0.221736219  nElectrons: 339.000000
LCAOMinimize: Iter:  13  F: -1819.2741580523002085  |grad|_K:  9.411e-05  alpha:  2.609e-02  linmin: -4.223e-03  cgtest:  6.355e-02  t[s]:   1719.27
LCAOMinimize: 	Predicted alpha/alphaT>3.000000, increasing alphaT to 7.827916e-02.
	FillingsUpdate:  mu: -0.223263713  nElectrons: 339.000000
LCAOMinimize: Iter:  14  F: -1819.2745435692306728  |grad|_K:  6.300e-05  alpha:  1.322e-01  linmin:  9.209e-04  cgtest: -7.537e-03  t[s]:   1848.20
	FillingsUpdate:  mu: -0.224010741  nElectrons: 339.000000
LCAOMinimize: Iter:  15  F: -1819.2745755542289317  |grad|_K:  5.541e-05  alpha:  2.459e-02  linmin: -4.901e-04  cgtest:  6.275e-03  t[s]:   1950.84
	FillingsUpdate:  mu: -0.225593407  nElectrons: 339.000000
LCAOMinimize: Iter:  16  F: -1819.2746244257923536  |grad|_K:  1.496e-05  alpha:  4.844e-02  linmin: -1.072e-03  cgtest: -1.848e-02  t[s]:   2052.08
LCAOMinimize: 	Predicted alpha/alphaT>3.000000, increasing alphaT to 1.453334e-01.
	FillingsUpdate:  mu: -0.225311827  nElectrons: 339.000000
LCAOMinimize: Iter:  17  F: -1819.2746369468268313  |grad|_K:  1.601e-05  alpha:  1.705e-01  linmin:  1.120e-04  cgtest: -4.429e-04  t[s]:   2181.65
	FillingsUpdate:  mu: -0.225408056  nElectrons: 339.000000
LCAOMinimize: Iter:  18  F: -1819.2746411608438848  |grad|_K:  2.485e-05  alpha:  5.017e-02  linmin: -2.877e-05  cgtest:  1.006e-03  t[s]:   2282.97
	FillingsUpdate:  mu: -0.225651392  nElectrons: 339.000000
LCAOMinimize: Iter:  19  F: -1819.2746519834579431  |grad|_K:  9.289e-06  alpha:  5.346e-02  linmin:  9.258e-05  cgtest: -1.090e-02  t[s]:   2383.46
	FillingsUpdate:  mu: -0.225551380  nElectrons: 339.000000
LCAOMinimize: Iter:  20  F: -1819.2746562377121791  |grad|_K:  4.598e-06  alpha:  1.505e-01  linmin: -9.112e-05  cgtest:  4.636e-03  t[s]:   2486.45
	FillingsUpdate:  mu: -0.225661639  nElectrons: 339.000000
LCAOMinimize: Iter:  21  F: -1819.2746566794248793  |grad|_K:  7.299e-06  alpha:  6.369e-02  linmin:  1.189e-05  cgtest: -3.833e-04  t[s]:   2589.58
	FillingsUpdate:  mu: -0.225769238  nElectrons: 339.000000
LCAOMinimize: Iter:  22  F: -1819.2746572098506022  |grad|_K:  2.824e-06  alpha:  3.038e-02  linmin:  4.664e-05  cgtest:  1.821e-03  t[s]:   2693.28
LCAOMinimize: Converged (|Delta F|<1.000000e-06 for 2 iters).


---- Citations for features of the code used in this run ----

   Software package:
      R. Sundararaman, K. Letchworth-Weaver, K.A. Schwarz, D. Gunceler, Y. Ozhabes and T.A. Arias, 'JDFTx: software for joint density-functional theory', SoftwareX 6, 278 (2017)

   gga-PBEsol exchange-correlation functional:
      J.P. Perdew et al., Phys. Rev. Lett. 100, 136406 (2008)

   Pseudopotentials:
      KF Garrity, JW Bennett, KM Rabe and D Vanderbilt, Comput. Mater. Sci. 81, 446 (2014)

   Truncated Coulomb potentials:
      R. Sundararaman and T.A. Arias, Phys. Rev. B 87, 165122 (2013)

   Total energy minimization with Auxiliary Hamiltonian:
      C. Freysoldt, S. Boeck, and J. Neugebauer, Phys. Rev. B 79, 241103(R) (2009)

This list may not be complete. Please suggest additional citations or
report any other bugs at https://github.com/shankar1729/jdftx/issues

Initialization completed successfully at t[s]:   2779.21


-------- Electronic minimization -----------
	FillingsUpdate:  mu: -0.225769238  nElectrons: 339.000000
ElecMinimize: Iter:   0  F: -1819.274657209858333  |grad|_K:  1.467e-04  alpha:  1.000e+00
	FillingsUpdate:  mu: -0.165291999  nElectrons: 339.000000
	SubspaceRotationAdjust: set factor to 0.999
ElecMinimize: Iter:   1  F: -1819.745980077418153  |grad|_K:  7.609e-05  alpha:  4.563e-01  linmin:  7.103e-05  t[s]:   3378.05
	FillingsUpdate:  mu: -0.245393431  nElectrons: 339.000000
	SubspaceRotationAdjust: set factor to 0.634
ElecMinimize: Iter:   2  F: -1819.803954311746566  |grad|_K:  9.469e-05  alpha:  2.112e-01  linmin:  2.339e-05  t[s]:   3791.12
	FillingsUpdate:  mu: -0.210867189  nElectrons: 339.000000
	SubspaceRotationAdjust: set factor to 0.352
ElecMinimize: Iter:   3  F: -1819.838456395978710  |grad|_K:  1.032e-04  alpha:  7.682e-02  linmin: -1.066e-04  t[s]:   4205.40
	FillingsUpdate:  mu: -0.212119274  nElectrons: 339.000000
	SubspaceRotationAdjust: set factor to 0.187
ElecMinimize: Iter:   4  F: -1819.855294965091616  |grad|_K:  3.161e-05  alpha:  3.091e-02  linmin: -6.751e-05  t[s]:   4626.50
ElecMinimize: 	Predicted alpha/alphaT>3.000000, increasing alphaT to 9.273524e-02.
ElecMinimize: 	Predicted alpha/alphaT>3.000000, increasing alphaT to 2.782057e-01.
	FillingsUpdate:  mu: -0.185906580  nElectrons: 339.000000
	SubspaceRotationAdjust: set factor to 0.164
ElecMinimize: Iter:   5  F: -1819.872668610212713  |grad|_K:  2.366e-05  alpha:  3.527e-01  linmin:  2.384e-05  t[s]:   5233.52
	FillingsUpdate:  mu: -0.189952677  nElectrons: 339.000000
	SubspaceRotationAdjust: set factor to 0.127
	SubspaceRotationAdjust: resetting CG because factor has changed by 0.126972
ElecMinimize: 	State modified externally: resetting search direction.
ElecMinimize: Iter:   6  F: -1819.876282718784523  |grad|_K:  1.958e-05  alpha:  1.352e-01
	FillingsUpdate:  mu: -0.194283991  nElectrons: 339.000000
	SubspaceRotationAdjust: set factor to 0.111
ElecMinimize: Iter:   7  F: -1819.878924032849682  |grad|_K:  1.317e-05  alpha:  1.421e-01  linmin: -7.018e-05  t[s]:   6231.15
	FillingsUpdate:  mu: -0.203227380  nElectrons: 339.000000
	SubspaceRotationAdjust: set factor to 0.105
ElecMinimize: Iter:   8  F: -1819.881249789652884  |grad|_K:  7.699e-06  alpha:  2.763e-01  linmin: -2.530e-05  t[s]:   6644.90
	FillingsUpdate:  mu: -0.202014595  nElectrons: 339.000000
	SubspaceRotationAdjust: set factor to 0.133
ElecMinimize: Iter:   9  F: -1819.882936724244473  |grad|_K:  5.736e-06  alpha:  5.881e-01  linmin:  4.043e-05  t[s]:   7058.35
	FillingsUpdate:  mu: -0.199623506  nElectrons: 339.000000
	SubspaceRotationAdjust: set factor to 0.115
ElecMinimize: Iter:  10  F: -1819.883795388572707  |grad|_K:  5.469e-06  alpha:  5.408e-01  linmin:  2.138e-05  t[s]:   7476.67
	FillingsUpdate:  mu: -0.199438595  nElectrons: 339.000000
	SubspaceRotationAdjust: set factor to 0.0925
ElecMinimize: Iter:  11  F: -1819.884109250094525  |grad|_K:  5.737e-06  alpha:  2.168e-01  linmin: -2.933e-06  t[s]:   7894.77
	FillingsUpdate:  mu: -0.199007859  nElectrons: 339.000000
	SubspaceRotationAdjust: set factor to 0.124
ElecMinimize: Iter:  12  F: -1819.884903049632612  |grad|_K:  4.603e-06  alpha:  5.029e-01  linmin:  5.371e-05  t[s]:   8312.47
	FillingsUpdate:  mu: -0.197399820  nElectrons: 339.000000
	SubspaceRotationAdjust: set factor to 0.103
ElecMinimize: Iter:  13  F: -1819.885465331101386  |grad|_K:  6.729e-06  alpha:  5.633e-01  linmin:  1.702e-05  t[s]:   8722.90
	FillingsUpdate:  mu: -0.197495770  nElectrons: 339.000000
	SubspaceRotationAdjust: set factor to 0.0743
ElecMinimize: Iter:  14  F: -1819.885862914556128  |grad|_K:  4.619e-06  alpha:  1.819e-01  linmin: -8.081e-06  t[s]:   9138.62
	FillingsUpdate:  mu: -0.197702868  nElectrons: 339.000000
	SubspaceRotationAdjust: set factor to 0.0934
ElecMinimize: Iter:  15  F: -1819.886335035213506  |grad|_K:  3.741e-06  alpha:  4.547e-01  linmin:  1.041e-06  t[s]:   9552.90
	FillingsUpdate:  mu: -0.197483855  nElectrons: 339.000000
	SubspaceRotationAdjust: set factor to 0.0714
ElecMinimize: Iter:  16  F: -1819.886506774703548  |grad|_K:  2.754e-06  alpha:  2.531e-01  linmin: -4.104e-06  t[s]:   9970.57
	FillingsUpdate:  mu: -0.197100215  nElectrons: 339.000000
	SubspaceRotationAdjust: set factor to 0.0658
ElecMinimize: Iter:  17  F: -1819.886608061087372  |grad|_K:  1.785e-06  alpha:  2.751e-01  linmin: -5.341e-07  t[s]:  10385.04
	FillingsUpdate:  mu: -0.196358875  nElectrons: 339.000000
	SubspaceRotationAdjust: set factor to 0.0805
ElecMinimize: Iter:  18  F: -1819.886671153115003  |grad|_K:  1.239e-06  alpha:  4.088e-01  linmin:  1.835e-06  t[s]:  10800.58
	FillingsUpdate:  mu: -0.196152880  nElectrons: 339.000000
	SubspaceRotationAdjust: set factor to 0.0757
ElecMinimize: Iter:  19  F: -1819.886696028634560  |grad|_K:  1.024e-06  alpha:  3.348e-01  linmin: -6.660e-08  t[s]:  11218.87
	FillingsUpdate:  mu: -0.196321984  nElectrons: 339.000000
	SubspaceRotationAdjust: set factor to 0.0875
ElecMinimize: Iter:  20  F: -1819.886711639245050  |grad|_K:  7.439e-07  alpha:  3.070e-01  linmin:  9.853e-07  t[s]:  11636.16
	FillingsUpdate:  mu: -0.196534452  nElectrons: 339.000000
	SubspaceRotationAdjust: set factor to 0.111
ElecMinimize: Iter:  21  F: -1819.886725470880720  |grad|_K:  6.733e-07  alpha:  5.166e-01  linmin:  4.070e-06  t[s]:  12053.14
	FillingsUpdate:  mu: -0.196572528  nElectrons: 339.000000
	SubspaceRotationAdjust: set factor to 0.0957
ElecMinimize: Iter:  22  F: -1819.886738359113451  |grad|_K:  9.601e-07  alpha:  5.890e-01  linmin:  3.058e-06  t[s]:  12471.06
	FillingsUpdate:  mu: -0.196748270  nElectrons: 339.000000
	SubspaceRotationAdjust: set factor to 0.084
ElecMinimize: Iter:  23  F: -1819.886749329569966  |grad|_K:  8.581e-07  alpha:  2.458e-01  linmin:  1.572e-07  t[s]:  12889.59
	FillingsUpdate:  mu: -0.197177267  nElectrons: 339.000000
	SubspaceRotationAdjust: set factor to 0.102
ElecMinimize: Iter:  24  F: -1819.886768870916057  |grad|_K:  8.337e-07  alpha:  5.514e-01  linmin:  5.839e-06  t[s]:  13300.76
	FillingsUpdate:  mu: -0.197420814  nElectrons: 339.000000
	SubspaceRotationAdjust: set factor to 0.0945
ElecMinimize: Iter:  25  F: -1819.886780796205130  |grad|_K:  8.665e-07  alpha:  3.577e-01  linmin: -2.967e-07  t[s]:  13720.15
	FillingsUpdate:  mu: -0.197659503  nElectrons: 339.000000
	SubspaceRotationAdjust: set factor to 0.0828
ElecMinimize: Iter:  26  F: -1819.886789701100952  |grad|_K:  6.397e-07  alpha:  2.440e-01  linmin: -4.961e-07  t[s]:  14136.19
	FillingsUpdate:  mu: -0.197803983  nElectrons: 339.000000
	SubspaceRotationAdjust: set factor to 0.11
ElecMinimize: Iter:  27  F: -1819.886797411129237  |grad|_K:  4.772e-07  alpha:  3.891e-01  linmin:  1.856e-06  t[s]:  14554.27
	FillingsUpdate:  mu: -0.197858553  nElectrons: 339.000000
	SubspaceRotationAdjust: set factor to 0.0928
ElecMinimize: Iter:  28  F: -1819.886801249485643  |grad|_K:  4.647e-07  alpha:  3.490e-01  linmin:  1.073e-07  t[s]:  14968.59
	FillingsUpdate:  mu: -0.197889983  nElectrons: 339.000000
	SubspaceRotationAdjust: set factor to 0.099
ElecMinimize: Iter:  29  F: -1819.886803582593302  |grad|_K:  3.479e-07  alpha:  2.228e-01  linmin: -2.214e-08  t[s]:  15386.11
	FillingsUpdate:  mu: -0.197818116  nElectrons: 339.000000
	SubspaceRotationAdjust: set factor to 0.125
ElecMinimize: Iter:  30  F: -1819.886806244871423  |grad|_K:  3.057e-07  alpha:  4.545e-01  linmin:  1.922e-06  t[s]:  15808.73
	FillingsUpdate:  mu: -0.197712387  nElectrons: 339.000000
	SubspaceRotationAdjust: set factor to 0.108
ElecMinimize: Iter:  31  F: -1819.886808181723836  |grad|_K:  3.827e-07  alpha:  4.288e-01  linmin:  6.641e-07  t[s]:  16225.99
	FillingsUpdate:  mu: -0.197646604  nElectrons: 339.000000
	SubspaceRotationAdjust: set factor to 0.103
ElecMinimize: Iter:  32  F: -1819.886809701511083  |grad|_K:  3.226e-07  alpha:  2.142e-01  linmin:  1.611e-07  t[s]:  16638.60
	FillingsUpdate:  mu: -0.197517144  nElectrons: 339.000000
	SubspaceRotationAdjust: set factor to 0.131
ElecMinimize: Iter:  33  F: -1819.886811793200195  |grad|_K:  2.844e-07  alpha:  4.156e-01  linmin:  9.608e-07  t[s]:  17050.72
	FillingsUpdate:  mu: -0.197393613  nElectrons: 339.000000
	SubspaceRotationAdjust: set factor to 0.125
ElecMinimize: Iter:  34  F: -1819.886813122177045  |grad|_K:  3.161e-07  alpha:  3.398e-01  linmin: -9.637e-08  t[s]:  17465.52
	FillingsUpdate:  mu: -0.197322184  nElectrons: 339.000000
	SubspaceRotationAdjust: set factor to 0.112
ElecMinimize: Iter:  35  F: -1819.886814003534028  |grad|_K:  2.253e-07  alpha:  1.820e-01  linmin: -9.845e-08  t[s]:  17879.02
	FillingsUpdate:  mu: -0.197226043  nElectrons: 339.000000
	SubspaceRotationAdjust: set factor to 0.16
ElecMinimize: Iter:  36  F: -1819.886814965704389  |grad|_K:  1.776e-07  alpha:  3.914e-01  linmin:  6.819e-07  t[s]:  18293.23
	FillingsUpdate:  mu: -0.197184831  nElectrons: 339.000000
	SubspaceRotationAdjust: set factor to 0.117
ElecMinimize: Iter:  37  F: -1819.886815508590871  |grad|_K:  2.112e-07  alpha:  3.561e-01  linmin:  3.860e-08  t[s]:  18710.02
	FillingsUpdate:  mu: -0.197181345  nElectrons: 339.000000
	SubspaceRotationAdjust: set factor to 0.122
ElecMinimize: Iter:  38  F: -1819.886815859807712  |grad|_K:  1.610e-07  alpha:  1.620e-01  linmin: -2.833e-08  t[s]:  19131.75
	FillingsUpdate:  mu: -0.197164976  nElectrons: 339.000000
	SubspaceRotationAdjust: set factor to 0.159
ElecMinimize: Iter:  39  F: -1819.886816370743645  |grad|_K:  1.475e-07  alpha:  4.032e-01  linmin: -2.735e-06  t[s]:  19548.89
	FillingsUpdate:  mu: -0.197156961  nElectrons: 339.000000
	SubspaceRotationAdjust: set factor to 0.124
ElecMinimize: Iter:  40  F: -1819.886816718504178  |grad|_K:  2.005e-07  alpha:  3.271e-01  linmin:  2.147e-08  t[s]:  19966.42
	FillingsUpdate:  mu: -0.197179831  nElectrons: 339.000000
	SubspaceRotationAdjust: set factor to 0.124
ElecMinimize: Iter:  41  F: -1819.886817063248373  |grad|_K:  1.473e-07  alpha:  1.768e-01  linmin:  7.716e-08  t[s]:  20381.83
	FillingsUpdate:  mu: -0.197230859  nElectrons: 339.000000
	SubspaceRotationAdjust: set factor to 0.155
ElecMinimize: Iter:  42  F: -1819.886817528130678  |grad|_K:  1.492e-07  alpha:  4.396e-01  linmin: -1.865e-06  t[s]:  20797.22
	FillingsUpdate:  mu: -0.197249812  nElectrons: 339.000000
	SubspaceRotationAdjust: set factor to 0.13
ElecMinimize: Iter:  43  F: -1819.886817753769037  |grad|_K:  1.536e-07  alpha:  2.077e-01  linmin:  1.747e-08  t[s]:  21213.62
	FillingsUpdate:  mu: -0.197290042  nElectrons: 339.000000
	SubspaceRotationAdjust: set factor to 0.129
ElecMinimize: Iter:  44  F: -1819.886818024786862  |grad|_K:  1.015e-07  alpha:  2.374e-01  linmin:  2.953e-07  t[s]:  21627.58
	FillingsUpdate:  mu: -0.197321032  nElectrons: 339.000000
	SubspaceRotationAdjust: set factor to 0.163
ElecMinimize: Iter:  45  F: -1819.886818214983123  |grad|_K:  7.948e-08  alpha:  3.810e-01  linmin: -6.667e-07  t[s]:  22044.00
	FillingsUpdate:  mu: -0.197342118  nElectrons: 339.000000
	SubspaceRotationAdjust: set factor to 0.13
ElecMinimize: Iter:  46  F: -1819.886818315508435  |grad|_K:  8.523e-08  alpha:  3.264e-01  linmin: -1.073e-07  t[s]:  22462.66
	FillingsUpdate:  mu: -0.197358160  nElectrons: 339.000000
	SubspaceRotationAdjust: set factor to 0.125
ElecMinimize: Iter:  47  F: -1819.886818368239574  |grad|_K:  6.233e-08  alpha:  1.504e-01  linmin: -6.145e-07  t[s]:  22884.25
	FillingsUpdate:  mu: -0.197367907  nElectrons: 339.000000
	SubspaceRotationAdjust: set factor to 0.164
ElecMinimize: Iter:  48  F: -1819.886818438524188  |grad|_K:  5.140e-08  alpha:  3.714e-01  linmin: -2.791e-06  t[s]:  23300.98
	FillingsUpdate:  mu: -0.197365615  nElectrons: 339.000000
	SubspaceRotationAdjust: set factor to 0.124
ElecMinimize: Iter:  49  F: -1819.886818489194184  |grad|_K:  6.768e-08  alpha:  3.961e-01  linmin:  4.402e-06  t[s]:  23718.01
	FillingsUpdate:  mu: -0.197366475  nElectrons: 339.000000
	SubspaceRotationAdjust: set factor to 0.122
ElecMinimize: Iter:  50  F: -1819.886818522479189  |grad|_K:  5.417e-08  alpha:  1.521e-01  linmin:  4.044e-07  t[s]:  24132.42
	FillingsUpdate:  mu: -0.197362654  nElectrons: 339.000000
	SubspaceRotationAdjust: set factor to 0.165
ElecMinimize: Iter:  51  F: -1819.886818581380112  |grad|_K:  5.620e-08  alpha:  4.213e-01  linmin:  1.405e-06  t[s]:  24551.38
	FillingsUpdate:  mu: -0.197356079  nElectrons: 339.000000
	SubspaceRotationAdjust: set factor to 0.146
ElecMinimize: Iter:  52  F: -1819.886818613638297  |grad|_K:  6.413e-08  alpha:  2.149e-01  linmin:  7.364e-07  t[s]:  24968.58
	FillingsUpdate:  mu: -0.197349048  nElectrons: 339.000000
	SubspaceRotationAdjust: set factor to 0.151
ElecMinimize: Iter:  53  F: -1819.886818661700772  |grad|_K:  4.540e-08  alpha:  2.443e-01  linmin:  1.183e-06  t[s]:  25385.97
	FillingsUpdate:  mu: -0.197335727  nElectrons: 339.000000
	SubspaceRotationAdjust: set factor to 0.177
ElecMinimize: Iter:  54  F: -1819.886818703542303  |grad|_K:  4.101e-08  alpha:  4.339e-01  linmin:  1.552e-06  t[s]:  25799.17
	FillingsUpdate:  mu: -0.197326900  nElectrons: 339.000000
	SubspaceRotationAdjust: set factor to 0.152
ElecMinimize: Iter:  55  F: -1819.886818722188536  |grad|_K:  4.526e-08  alpha:  2.340e-01  linmin:  8.206e-07  t[s]:  26216.87
	FillingsUpdate:  mu: -0.197322844  nElectrons: 339.000000
	SubspaceRotationAdjust: set factor to 0.14
ElecMinimize: Iter:  56  F: -1819.886818737795465  |grad|_K:  2.911e-08  alpha:  1.541e-01  linmin: -1.092e-06  t[s]:  26637.86
	FillingsUpdate:  mu: -0.197317162  nElectrons: 339.000000
	SubspaceRotationAdjust: set factor to 0.201
ElecMinimize: Iter:  57  F: -1819.886818752453564  |grad|_K:  2.177e-08  alpha:  3.543e-01  linmin: -5.891e-06  t[s]:  27055.44
	FillingsUpdate:  mu: -0.197313826  nElectrons: 339.000000
	SubspaceRotationAdjust: set factor to 0.152
ElecMinimize: Iter:  58  F: -1819.886818762389794  |grad|_K:  2.731e-08  alpha:  4.185e-01  linmin:  6.321e-06  t[s]:  27471.50
	FillingsUpdate:  mu: -0.197315060  nElectrons: 339.000000
	SubspaceRotationAdjust: set factor to 0.152
ElecMinimize: Iter:  59  F: -1819.886818766053011  |grad|_K:  2.166e-08  alpha:  1.184e-01  linmin: -5.389e-07  t[s]:  27892.62
ElecMinimize: Converged (|Delta F|<1.000000e-08 for 2 iters).
Setting wave functions to eigenvectors of Hamiltonian

# Ionic positions in lattice coordinates:
ion O   0.684370000000000   0.479770000000000   0.325120000000000 1
ion O   0.424030000000000   0.721820000000000   0.325120000000000 1
ion C   0.500000000000000   0.500000000000000   0.295860000000000 1
ion H   0.417670000000000   0.346900000000000   0.317590000000000 1
ion H   0.731190000000000   0.325220000000000   0.303630000000000 1
ion H   0.297620000000000   0.728340000000000   0.303630000000000 1
ion Pt   0.000000000000000   0.000000000000000  -0.166660000000000 0
ion Pt   0.000000000000000   0.500000000000000  -0.166660000000000 0
ion Pt   0.500000000000000   0.000000000000000  -0.166660000000000 0
ion Pt   0.500000000000000   0.500000000000000  -0.166660000000000 0
ion Pt   0.250000000000000   0.250000000000000  -0.083330000000000 0
ion Pt   0.250000000000000   0.750000000000000  -0.083330000000000 0
ion Pt   0.750000000000000   0.250000000000000  -0.083330000000000 0
ion Pt   0.750000000000000   0.750000000000000  -0.083330000000000 0
ion Pt   0.000000000000000   0.000000000000000   0.000000000000000 1
ion Pt   0.000000000000000   0.500000000000000   0.000000000000000 1
ion Pt   0.500000000000000   0.000000000000000   0.000000000000000 1
ion Pt   0.500000000000000   0.500000000000000   0.000000000000000 1
ion Pt   0.250000000000000   0.250000000000000   0.083330000000000 1
ion Pt   0.250000000000000   0.750000000000000   0.083330000000000 1
ion Pt   0.750000000000000   0.250000000000000   0.083330000000000 1
ion Pt   0.750000000000000   0.750000000000000   0.083330000000000 1
ion Pt   0.000000000000000   0.000000000000000   0.166660000000000 1
ion Pt   0.000000000000000   0.500000000000000   0.166660000000000 1
ion Pt   0.500000000000000   0.000000000000000   0.166660000000000 1
ion Pt   0.500000000000000   0.500000000000000   0.166660000000000 1


# Forces in Lattice coordinates:
force O  -0.424824077076446   0.184573909185897  -0.234761717787283 1
force O   0.341246818654835  -0.185715718959288  -0.167827887400087 1
force C   0.286846482826233   0.240005008989413   0.079028094365138 1
force H  -0.128427848082382  -0.127546260221503  -0.076529286136512 1
force H   0.042051274296397  -0.083921749772714  -0.109914361522006 1
force H  -0.127384705845973  -0.001678502946335  -0.114492629859047 1
force Pt  -0.000263302370903   0.000476515174620  -0.450345841987598 0
force Pt   0.000767789176646  -0.000333729241044  -0.448560411958669 0
force Pt   0.000912991239573   0.001720611861508  -0.436061653676989 0
force Pt  -0.000282457197253  -0.001420550483176  -0.531859442656606 0
force Pt   0.004745440698866   0.003021844972897  -0.862366365190060 0
force Pt   0.003996516337552  -0.003282387065773  -0.862171333714874 0
force Pt  -0.004136595715047   0.002866684560056  -0.862053072017328 0
force Pt  -0.003317113281850  -0.003299435184394  -0.870498497702465 0
force Pt   0.000006373280826  -0.000451981798929  -0.056175185486991 1
force Pt  -0.005681218216558  -0.001688282395164  -0.008830443487441 1
force Pt  -0.004663267817600  -0.000696503827589   0.036042259633441 1
force Pt  -0.001326981957985   0.003265291090648   0.145341685749440 1
force Pt  -0.026856615698679  -0.009105270183948   0.836836652173510 1
force Pt  -0.025067190188946   0.009140693296413   0.816893640635530 1
force Pt   0.023217949667274  -0.010749033115648   0.834840147228328 1
force Pt   0.029671897850798   0.010562706483133   0.811651129598198 1
force Pt  -0.001747032469727   0.000936758948169   0.465119860959073 1
force Pt   0.012197847153844   0.001756731813203   0.460271490329363 1
force Pt   0.013100818268659  -0.003690454284052   0.404401394686899 1
force Pt  -0.005919768534298  -0.025639856552567   1.230465760391642 1

# Energy components:
   Eewald =   -13893.0475697407782718
       EH =   -12360.0690724881624192
     Eloc =    24110.1487170062864607
      Enl =      -15.3936857349380407
      Exc =     -576.8779632799117962
 Exc_core =      324.9917881204953574
       KE =      590.5857650689238199
-------------------------------------
     Etot =    -1819.6620210480834885
       TS =        0.2247977179694314
-------------------------------------
        F =    -1819.8868187660530111

IonicMinimize: Iter:   0  F: -1819.886818766053011  |grad|_K:  1.273e-02  t[s]:  27960.33

#--- Lowdin population analysis ---
# oxidation-state O -0.400 -0.392
# oxidation-state C +0.267
# oxidation-state H +0.226 +0.425 +0.426
# oxidation-state Pt +0.070 +0.070 +0.070 +0.066 -0.046 -0.046 -0.046 -0.046 +0.016 +0.015 +0.016 -0.002 -0.044 -0.049 -0.049 -0.042 -0.003 -0.005 +0.005 -0.059


-------- Electronic minimization -----------
	FillingsUpdate:  mu: -0.108180447  nElectrons: 339.000000
ElecMinimize: Iter:   0  F: -1819.642810516340660  |grad|_K:  1.460e-04  alpha:  1.000e+00
	FillingsUpdate:  mu: -0.135513992  nElectrons: 339.000000
	SubspaceRotationAdjust: set factor to 0.0955
ElecMinimize: Iter:   1  F: -1819.784824049998633  |grad|_K:  1.130e-04  alpha:  1.523e-01  linmin:  1.005e-02  t[s]:  28695.21
	FillingsUpdate:  mu: -0.221547793  nElectrons: 339.000000
	SubspaceRotationAdjust: set factor to 0.174
ElecMinimize: Iter:   2  F: -1819.866730391571309  |grad|_K:  2.739e-05  alpha:  1.452e-01  linmin: -5.719e-04  t[s]:  29111.46
	FillingsUpdate:  mu: -0.202040876  nElectrons: 339.000000
	SubspaceRotationAdjust: set factor to 0.111
ElecMinimize: Iter:   3  F: -1819.878408835027358  |grad|_K:  2.407e-05  alpha:  3.211e-01  linmin:  4.986e-04  t[s]:  29530.88
	FillingsUpdate:  mu: -0.200720779  nElectrons: 339.000000
	SubspaceRotationAdjust: set factor to 0.0841
ElecMinimize: Iter:   4  F: -1819.881050136232716  |grad|_K:  1.029e-05  alpha:  9.397e-02  linmin: -2.319e-04  t[s]:  29949.11
ElecMinimize: 	Predicted alpha/alphaT>3.000000, increasing alphaT to 2.818962e-01.
	FillingsUpdate:  mu: -0.197015994  nElectrons: 339.000000
	SubspaceRotationAdjust: set factor to 0.0829
ElecMinimize: Iter:   5  F: -1819.883701122978209  |grad|_K:  1.004e-05  alpha:  5.141e-01  linmin: -3.109e-05  t[s]:  30464.68
	FillingsUpdate:  mu: -0.195016384  nElectrons: 339.000000
	SubspaceRotationAdjust: set factor to 0.0679
ElecMinimize: Iter:   6  F: -1819.885156808258216  |grad|_K:  1.042e-05  alpha:  2.955e-01  linmin: -3.291e-05  t[s]:  30882.76
	FillingsUpdate:  mu: -0.193760674  nElectrons: 339.000000
	SubspaceRotationAdjust: set factor to 0.0973
ElecMinimize: Iter:   7  F: -1819.887493163490262  |grad|_K:  8.487e-06  alpha:  4.423e-01  linmin: -4.899e-05  t[s]:  31304.90
	FillingsUpdate:  mu: -0.191922747  nElectrons: 339.000000
	SubspaceRotationAdjust: set factor to 0.0928
ElecMinimize: Iter:   8  F: -1819.889104696286950  |grad|_K:  9.845e-06  alpha:  4.594e-01  linmin: -5.444e-05  t[s]:  31720.56
	FillingsUpdate:  mu: -0.191311851  nElectrons: 339.000000
	SubspaceRotationAdjust: set factor to 0.072
ElecMinimize: Iter:   9  F: -1819.890295162994107  |grad|_K:  8.178e-06  alpha:  2.498e-01  linmin: -3.433e-05  t[s]:  32141.30
	FillingsUpdate:  mu: -0.192844519  nElectrons: 339.000000
	SubspaceRotationAdjust: set factor to 0.0943
ElecMinimize: Iter:  10  F: -1819.892133089527988  |grad|_K:  6.989e-06  alpha:  5.638e-01  linmin: -2.393e-05  t[s]:  32557.85
	FillingsUpdate:  mu: -0.194152566  nElectrons: 339.000000
	SubspaceRotationAdjust: set factor to 0.0791
ElecMinimize: Iter:  11  F: -1819.892980190596973  |grad|_K:  5.967e-06  alpha:  3.583e-01  linmin:  6.316e-06  t[s]:  32967.87
	FillingsUpdate:  mu: -0.194751079  nElectrons: 339.000000
	SubspaceRotationAdjust: set factor to 0.0534
ElecMinimize: Iter:  12  F: -1819.893374863547706  |grad|_K:  3.862e-06  alpha:  2.284e-01  linmin: -3.136e-06  t[s]:  33383.71
	FillingsUpdate:  mu: -0.195046741  nElectrons: 339.000000
	SubspaceRotationAdjust: set factor to 0.0621
ElecMinimize: Iter:  13  F: -1819.893648932804354  |grad|_K:  2.493e-06  alpha:  3.789e-01  linmin: -9.590e-06  t[s]:  33799.70
	FillingsUpdate:  mu: -0.194965310  nElectrons: 339.000000
	SubspaceRotationAdjust: set factor to 0.0599
ElecMinimize: Iter:  14  F: -1819.893759492623303  |grad|_K:  1.588e-06  alpha:  3.668e-01  linmin: -7.107e-06  t[s]:  34213.44
	FillingsUpdate:  mu: -0.195039756  nElectrons: 339.000000
	SubspaceRotationAdjust: set factor to 0.0484
ElecMinimize: Iter:  15  F: -1819.893797210123921  |grad|_K:  1.095e-06  alpha:  3.087e-01  linmin:  2.110e-06  t[s]:  34630.91
	FillingsUpdate:  mu: -0.195381327  nElectrons: 339.000000
	SubspaceRotationAdjust: set factor to 0.0569
ElecMinimize: Iter:  16  F: -1819.893819505132342  |grad|_K:  7.487e-07  alpha:  3.837e-01  linmin: -2.526e-06  t[s]:  35045.49
	FillingsUpdate:  mu: -0.195564191  nElectrons: 339.000000
	SubspaceRotationAdjust: set factor to 0.0645
ElecMinimize: Iter:  17  F: -1819.893832812111896  |grad|_K:  6.296e-07  alpha:  4.897e-01  linmin: -2.286e-06  t[s]:  35462.88
	FillingsUpdate:  mu: -0.195612577  nElectrons: 339.000000
	SubspaceRotationAdjust: set factor to 0.059
ElecMinimize: Iter:  18  F: -1819.893840555958604  |grad|_K:  6.147e-07  alpha:  4.031e-01  linmin:  1.366e-06  t[s]:  35878.98
	FillingsUpdate:  mu: -0.195794865  nElectrons: 339.000000
	SubspaceRotationAdjust: set factor to 0.0645
ElecMinimize: Iter:  19  F: -1819.893850423076856  |grad|_K:  5.983e-07  alpha:  5.386e-01  linmin: -4.364e-06  t[s]:  36298.31
	FillingsUpdate:  mu: -0.195995872  nElectrons: 339.000000
	SubspaceRotationAdjust: set factor to 0.0733
ElecMinimize: Iter:  20  F: -1819.893862447142737  |grad|_K:  6.301e-07  alpha:  6.926e-01  linmin: -2.016e-06  t[s]:  36719.12
	FillingsUpdate:  mu: -0.195996661  nElectrons: 339.000000
	SubspaceRotationAdjust: set factor to 0.0615
ElecMinimize: Iter:  21  F: -1819.893870568757393  |grad|_K:  6.124e-07  alpha:  4.217e-01  linmin: -7.159e-07  t[s]:  37135.63
	FillingsUpdate:  mu: -0.196008190  nElectrons: 339.000000
	SubspaceRotationAdjust: set factor to 0.0517
ElecMinimize: Iter:  22  F: -1819.893876979087736  |grad|_K:  4.409e-07  alpha:  3.527e-01  linmin: -1.826e-06  t[s]:  37555.01
	FillingsUpdate:  mu: -0.195992163  nElectrons: 339.000000
	SubspaceRotationAdjust: set factor to 0.0604
ElecMinimize: Iter:  23  F: -1819.893881154051542  |grad|_K:  3.096e-07  alpha:  4.432e-01  linmin:  2.084e-06  t[s]:  37973.46
	FillingsUpdate:  mu: -0.195974702  nElectrons: 339.000000
	SubspaceRotationAdjust: set factor to 0.0626
ElecMinimize: Iter:  24  F: -1819.893883054237904  |grad|_K:  2.182e-07  alpha:  4.091e-01  linmin:  4.006e-06  t[s]:  38384.70
	FillingsUpdate:  mu: -0.195954120  nElectrons: 339.000000
	SubspaceRotationAdjust: set factor to 0.0552
ElecMinimize: Iter:  25  F: -1819.893883904912855  |grad|_K:  1.765e-07  alpha:  3.688e-01  linmin: -1.897e-06  t[s]:  38799.00
	FillingsUpdate:  mu: -0.195892720  nElectrons: 339.000000
	SubspaceRotationAdjust: set factor to 0.0612
ElecMinimize: Iter:  26  F: -1819.893884555709747  |grad|_K:  1.355e-07  alpha:  4.313e-01  linmin:  3.147e-06  t[s]:  39216.16
	FillingsUpdate:  mu: -0.195853192  nElectrons: 339.000000
	SubspaceRotationAdjust: set factor to 0.0756
ElecMinimize: Iter:  27  F: -1819.893885036797428  |grad|_K:  1.151e-07  alpha:  5.410e-01  linmin: -4.809e-07  t[s]:  39632.17
	FillingsUpdate:  mu: -0.195848275  nElectrons: 339.000000
	SubspaceRotationAdjust: set factor to 0.0753
ElecMinimize: Iter:  28  F: -1819.893885368679776  |grad|_K:  1.236e-07  alpha:  5.163e-01  linmin: -5.438e-08  t[s]:  40046.13
	FillingsUpdate:  mu: -0.195833574  nElectrons: 339.000000
	SubspaceRotationAdjust: set factor to 0.0618
ElecMinimize: Iter:  29  F: -1819.893885634882736  |grad|_K:  1.082e-07  alpha:  3.601e-01  linmin:  1.161e-06  t[s]:  40461.85
	FillingsUpdate:  mu: -0.195826453  nElectrons: 339.000000
	SubspaceRotationAdjust: set factor to 0.0669
ElecMinimize: Iter:  30  F: -1819.893885893593279  |grad|_K:  8.137e-08  alpha:  4.558e-01  linmin: -1.453e-06  t[s]:  40880.40
	FillingsUpdate:  mu: -0.195826125  nElectrons: 339.000000
	SubspaceRotationAdjust: set factor to 0.0796
ElecMinimize: Iter:  31  F: -1819.893886069884502  |grad|_K:  6.932e-08  alpha:  5.510e-01  linmin:  3.980e-06  t[s]:  41295.56
	FillingsUpdate:  mu: -0.195837105  nElectrons: 339.000000
	SubspaceRotationAdjust: set factor to 0.0764
ElecMinimize: Iter:  32  F: -1819.893886181093421  |grad|_K:  6.532e-08  alpha:  4.771e-01  linmin:  2.731e-06  t[s]:  41711.29
	FillingsUpdate:  mu: -0.195852008  nElectrons: 339.000000
	SubspaceRotationAdjust: set factor to 0.0609
ElecMinimize: Iter:  33  F: -1819.893886242836743  |grad|_K:  5.046e-08  alpha:  2.962e-01  linmin: -8.369e-07  t[s]:  42133.47
	FillingsUpdate:  mu: -0.195857801  nElectrons: 339.000000
	SubspaceRotationAdjust: set factor to 0.0697
ElecMinimize: Iter:  34  F: -1819.893886298115149  |grad|_K:  3.577e-08  alpha:  4.406e-01  linmin: -3.385e-05  t[s]:  42552.03
	FillingsUpdate:  mu: -0.195863122  nElectrons: 339.000000
	SubspaceRotationAdjust: set factor to 0.0816
ElecMinimize: Iter:  35  F: -1819.893886333361706  |grad|_K:  2.794e-08  alpha:  5.447e-01  linmin: -2.656e-05  t[s]:  42968.67
	FillingsUpdate:  mu: -0.195868007  nElectrons: 339.000000
	SubspaceRotationAdjust: set factor to 0.0721
ElecMinimize: Iter:  36  F: -1819.893886349508875  |grad|_K:  2.542e-08  alpha:  4.193e-01  linmin: -1.927e-06  t[s]:  43390.11
	FillingsUpdate:  mu: -0.195866802  nElectrons: 339.000000
	SubspaceRotationAdjust: set factor to 0.0588
ElecMinimize: Iter:  37  F: -1819.893886357623842  |grad|_K:  1.770e-08  alpha:  2.757e-01  linmin: -2.303e-05  t[s]:  43807.40
	FillingsUpdate:  mu: -0.195864041  nElectrons: 339.000000
	SubspaceRotationAdjust: set factor to 0.0603
ElecMinimize: Iter:  38  F: -1819.893886364355922  |grad|_K:  1.984e-08  alpha:  7.096e-01  linmin:  1.976e-04  t[s]:  44222.86
ElecMinimize: Converged (|Delta F|<1.000000e-08 for 2 iters).
Setting wave functions to eigenvectors of Hamiltonian

# Ionic positions in lattice coordinates:
ion O   0.682091685402390   0.481481356801539   0.324878145054941 1
ion O   0.425860093090956   0.720098056415474   0.324947101263063 1
ion C   0.501538346257570   0.502225310209601   0.295941415895236 1
ion H   0.416981246568134   0.345717399702354   0.317511158413440 1
ion H   0.731415519308456   0.324441883212508   0.303516764621942 1
ion H   0.296936840898382   0.728324437034214   0.303512048023139 1
ion Pt   0.000000000000000   0.000000000000000  -0.166660000000000 0
ion Pt   0.000000000000000   0.500000000000000  -0.166660000000000 0
ion Pt   0.500000000000000   0.000000000000000  -0.166660000000000 0
ion Pt   0.500000000000000   0.500000000000000  -0.166660000000000 0
ion Pt   0.250000000000000   0.250000000000000  -0.083330000000000 0
ion Pt   0.250000000000000   0.750000000000000  -0.083330000000000 0
ion Pt   0.750000000000000   0.250000000000000  -0.083330000000000 0
ion Pt   0.750000000000000   0.750000000000000  -0.083330000000000 0
ion Pt   0.000000034179651  -0.000004190744668  -0.000057872495259 1
ion Pt  -0.000030468146919   0.499984346359826  -0.000009097251650 1
ion Pt   0.499974991080509  -0.000006457936378   0.000037131261458 1
ion Pt   0.499992883448635   0.500030275558131   0.000149733124093 1
ion Pt   0.249855969040150   0.249915576550728   0.084192121322176 1
ion Pt   0.249865565657856   0.750084751889975   0.084171575740872 1
ion Pt   0.750124516938912   0.249900335692008   0.084190064493667 1
ion Pt   0.750159129205853   0.750097936700059   0.084166174829553 1
ion Pt  -0.000009369265522   0.000008685565606   0.167139173263335 1
ion Pt   0.000065416568245   0.500016288298548   0.167134178401211 1
ion Pt   0.500070259166353  -0.000034217642502   0.167076620213959 1
ion Pt   0.499968252517233   0.499762268984304   0.167927643769529 1


# Forces in Lattice coordinates:
force O  -0.155759295109286   0.032810211249894  -0.259775140999402 1
force O   0.083142336149577  -0.070417222159807  -0.214084389522082 1
force C   0.060416197234572   0.042190787652431   0.128408328298706 1
force H  -0.038842263475351  -0.030911059014279  -0.227453787516970 1
force H  -0.039761314697696   0.062006430715523   0.054212391658627 1
force H   0.076305896015121  -0.013287415900878   0.045963164131653 1
force Pt  -0.000184837915443   0.000437013754136  -0.453595436744535 0
force Pt   0.000794273031615  -0.000282955569898  -0.448763015843749 0
force Pt   0.001001245950522   0.001690599416756  -0.433347342382922 0
force Pt  -0.000190490194868  -0.001340522628401  -0.525393053566098 0
force Pt   0.007079953313921   0.004192078057936  -0.822527316158220 0
force Pt   0.006086267260970  -0.004418269865044  -0.824368074525028 0
force Pt  -0.007097326914668   0.003707785456457  -0.822992189278366 0
force Pt  -0.005978027379863  -0.004093008975350  -0.831757596963650 0
force Pt  -0.000176622257480  -0.000276601932252   0.004828186274791 1
force Pt  -0.004511102744584  -0.001599578853385   0.050779374118350 1
force Pt  -0.004206216632905  -0.000121864575872   0.091854013463590 1
force Pt  -0.001212789596803   0.001852863145934   0.204700922583628 1
force Pt  -0.017510526643750  -0.004399349645947   0.739386259331447 1
force Pt  -0.014646719401075   0.003258081054593   0.725292186029493 1
force Pt   0.014638998409104  -0.004397430621227   0.738331042891905 1
force Pt   0.018202356749883   0.002763746649613   0.720798593487460 1
force Pt  -0.001455532701736   0.000867470075708   0.477450169155632 1
force Pt   0.012688393715369   0.001585057930918   0.462510193776199 1
force Pt   0.012657564606705  -0.003346951834700   0.400248104055073 1
force Pt  -0.002617167959452  -0.019174383956445   1.018068068581637 1

# Energy components:
   Eewald =   -13912.9920561821763840
       EH =   -12379.4893642254610313
     Eloc =    24149.5222753114539955
      Enl =      -15.3971476198243664
      Exc =     -576.8601961509249350
 Exc_core =      324.9917838681279250
       KE =      590.5557846758094911
-------------------------------------
     Etot =    -1819.6689203229968825
       TS =        0.2249660413589826
-------------------------------------
        F =    -1819.8938863643559216

IonicMinimize: Iter:   1  F: -1819.893886364355922  |grad|_K:  9.131e-03  alpha:  1.000e+00  linmin: -6.350e-01  t[s]:  44289.71

#--- Lowdin population analysis ---
# oxidation-state O -0.388 -0.383
# oxidation-state C +0.281
# oxidation-state H +0.216 +0.424 +0.425
# oxidation-state Pt +0.071 +0.071 +0.070 +0.067 -0.046 -0.045 -0.045 -0.045 +0.015 +0.014 +0.015 -0.003 -0.045 -0.051 -0.051 -0.043 -0.008 -0.010 +0.000 -0.062


-------- Electronic minimization -----------
	FillingsUpdate:  mu: +0.033593480  nElectrons: 339.000000
ElecMinimize: Iter:   0  F: -1818.233093718284863  |grad|_K:  3.426e-04  alpha:  1.000e+00
	FillingsUpdate:  mu: -0.088941683  nElectrons: 339.000000
	SubspaceRotationAdjust: set factor to 0.0349
ElecMinimize: Iter:   1  F: -1819.563290296749983  |grad|_K:  1.442e-04  alpha:  2.511e-01  linmin:  2.202e-02  t[s]:  45025.42
	FillingsUpdate:  mu: -0.211630348  nElectrons: 339.000000
	SubspaceRotationAdjust: set factor to 0.0316
ElecMinimize: Iter:   2  F: -1819.775895195483145  |grad|_K:  4.301e-05  alpha:  2.249e-01  linmin: -3.956e-04  t[s]:  45446.72
	FillingsUpdate:  mu: -0.199353159  nElectrons: 339.000000
	SubspaceRotationAdjust: set factor to 0.0405
ElecMinimize: Iter:   3  F: -1819.808433891252434  |grad|_K:  1.828e-05  alpha:  3.624e-01  linmin: -6.024e-06  t[s]:  45860.06
	FillingsUpdate:  mu: -0.195349558  nElectrons: 339.000000
	SubspaceRotationAdjust: set factor to 0.0344
ElecMinimize: Iter:   4  F: -1819.815407174815618  |grad|_K:  1.421e-05  alpha:  4.304e-01  linmin: -4.957e-05  t[s]:  46272.68
	FillingsUpdate:  mu: -0.195123969  nElectrons: 339.000000
	SubspaceRotationAdjust: set factor to 0.0382
ElecMinimize: Iter:   5  F: -1819.823798521367507  |grad|_K:  1.820e-05  alpha:  8.616e-01  linmin:  1.772e-04  t[s]:  46689.83
	FillingsUpdate:  mu: -0.191890550  nElectrons: 339.000000
	SubspaceRotationAdjust: set factor to 0.0469
ElecMinimize: Iter:   6  F: -1819.835008175376743  |grad|_K:  1.936e-05  alpha:  7.061e-01  linmin: -9.881e-06  t[s]:  47106.74
	FillingsUpdate:  mu: -0.189877826  nElectrons: 339.000000
	SubspaceRotationAdjust: set factor to 0.0493
ElecMinimize: Iter:   7  F: -1819.850776304722331  |grad|_K:  2.482e-05  alpha:  8.634e-01  linmin: -1.203e-04  t[s]:  47522.84
	FillingsUpdate:  mu: -0.183411248  nElectrons: 339.000000
	SubspaceRotationAdjust: set factor to 0.0481
ElecMinimize: Iter:   8  F: -1819.872440043436654  |grad|_K:  2.914e-05  alpha:  6.995e-01  linmin:  1.591e-04  t[s]:  47939.62
	FillingsUpdate:  mu: -0.198006988  nElectrons: 339.000000
	SubspaceRotationAdjust: set factor to 0.0566
ElecMinimize: Iter:   9  F: -1819.890009891966656  |grad|_K:  1.968e-05  alpha:  4.491e-01  linmin:  5.506e-06  t[s]:  48350.87
	FillingsUpdate:  mu: -0.194372593  nElectrons: 339.000000
	SubspaceRotationAdjust: set factor to 0.0543
ElecMinimize: Iter:  10  F: -1819.897825219201422  |grad|_K:  1.299e-05  alpha:  4.170e-01  linmin: -6.304e-05  t[s]:  48762.89
	FillingsUpdate:  mu: -0.192147168  nElectrons: 339.000000
	SubspaceRotationAdjust: set factor to 0.0453
ElecMinimize: Iter:  11  F: -1819.900852400850454  |grad|_K:  9.568e-06  alpha:  3.680e-01  linmin:  4.885e-05  t[s]:  49172.94
	FillingsUpdate:  mu: -0.194167482  nElectrons: 339.000000
	SubspaceRotationAdjust: set factor to 0.0527
ElecMinimize: Iter:  12  F: -1819.902345795249175  |grad|_K:  5.468e-06  alpha:  3.375e-01  linmin: -3.150e-05  t[s]:  49586.61
	FillingsUpdate:  mu: -0.194866957  nElectrons: 339.000000
	SubspaceRotationAdjust: set factor to 0.0657
ElecMinimize: Iter:  13  F: -1819.902994121560596  |grad|_K:  3.731e-06  alpha:  4.468e-01  linmin: -1.118e-05  t[s]:  49998.65
	FillingsUpdate:  mu: -0.194373461  nElectrons: 339.000000
	SubspaceRotationAdjust: set factor to 0.0683
ElecMinimize: Iter:  14  F: -1819.903289711220395  |grad|_K:  3.624e-06  alpha:  4.380e-01  linmin:  5.859e-06  t[s]:  50415.16
	FillingsUpdate:  mu: -0.194094612  nElectrons: 339.000000
	SubspaceRotationAdjust: set factor to 0.0731
ElecMinimize: Iter:  15  F: -1819.903535428978557  |grad|_K:  2.838e-06  alpha:  3.862e-01  linmin: -1.862e-05  t[s]:  50823.71
	FillingsUpdate:  mu: -0.193455109  nElectrons: 339.000000
	SubspaceRotationAdjust: set factor to 0.0918
ElecMinimize: Iter:  16  F: -1819.903762375485940  |grad|_K:  2.480e-06  alpha:  5.811e-01  linmin:  7.619e-06  t[s]:  51240.41
	FillingsUpdate:  mu: -0.192765676  nElectrons: 339.000000
	SubspaceRotationAdjust: set factor to 0.0984
ElecMinimize: Iter:  17  F: -1819.903938279755494  |grad|_K:  2.508e-06  alpha:  5.905e-01  linmin:  3.047e-06  t[s]:  51657.18
	FillingsUpdate:  mu: -0.192501955  nElectrons: 339.000000
	SubspaceRotationAdjust: set factor to 0.0822
ElecMinimize: Iter:  18  F: -1819.904037645216249  |grad|_K:  2.450e-06  alpha:  3.261e-01  linmin:  5.402e-06  t[s]:  52076.91
	FillingsUpdate:  mu: -0.192176961  nElectrons: 339.000000
	SubspaceRotationAdjust: set factor to 0.0779
ElecMinimize: Iter:  19  F: -1819.904117990122131  |grad|_K:  1.630e-06  alpha:  2.762e-01  linmin:  8.120e-07  t[s]:  52494.93
	FillingsUpdate:  mu: -0.192301405  nElectrons: 339.000000
	SubspaceRotationAdjust: set factor to 0.104
ElecMinimize: Iter:  20  F: -1819.904186508875227  |grad|_K:  1.347e-06  alpha:  5.323e-01  linmin: -2.948e-06  t[s]:  52910.55
	FillingsUpdate:  mu: -0.192522152  nElectrons: 339.000000
	SubspaceRotationAdjust: set factor to 0.119
ElecMinimize: Iter:  21  F: -1819.904237011245641  |grad|_K:  1.297e-06  alpha:  5.742e-01  linmin: -4.978e-06  t[s]:  53326.26
	FillingsUpdate:  mu: -0.192552438  nElectrons: 339.000000
	SubspaceRotationAdjust: set factor to 0.0935
ElecMinimize: Iter:  22  F: -1819.904262428178072  |grad|_K:  1.396e-06  alpha:  3.117e-01  linmin: -2.911e-06  t[s]:  53740.72
	FillingsUpdate:  mu: -0.192827528  nElectrons: 339.000000
	SubspaceRotationAdjust: set factor to 0.0796
ElecMinimize: Iter:  23  F: -1819.904285062676308  |grad|_K:  9.158e-07  alpha:  2.397e-01  linmin: -2.059e-06  t[s]:  54157.50
	FillingsUpdate:  mu: -0.193189917  nElectrons: 339.000000
	SubspaceRotationAdjust: set factor to 0.0891
ElecMinimize: Iter:  24  F: -1819.904304702274203  |grad|_K:  6.509e-07  alpha:  4.830e-01  linmin: -4.425e-06  t[s]:  54575.43
	FillingsUpdate:  mu: -0.193430566  nElectrons: 339.000000
	SubspaceRotationAdjust: set factor to 0.103
ElecMinimize: Iter:  25  F: -1819.904314128521719  |grad|_K:  4.406e-07  alpha:  4.589e-01  linmin: -6.363e-07  t[s]:  54994.48
	FillingsUpdate:  mu: -0.193541887  nElectrons: 339.000000
	SubspaceRotationAdjust: set factor to 0.0983
ElecMinimize: Iter:  26  F: -1819.904318236258405  |grad|_K:  4.434e-07  alpha:  4.365e-01  linmin: -2.484e-06  t[s]:  55411.74
	FillingsUpdate:  mu: -0.193557986  nElectrons: 339.000000
	SubspaceRotationAdjust: set factor to 0.0845
ElecMinimize: Iter:  27  F: -1819.904320572788265  |grad|_K:  3.639e-07  alpha:  2.451e-01  linmin:  9.181e-07  t[s]:  55829.16
	FillingsUpdate:  mu: -0.193600639  nElectrons: 339.000000
	SubspaceRotationAdjust: set factor to 0.104
ElecMinimize: Iter:  28  F: -1819.904323035554171  |grad|_K:  2.680e-07  alpha:  3.836e-01  linmin: -9.924e-06  t[s]:  56245.28
	FillingsUpdate:  mu: -0.193625927  nElectrons: 339.000000
	SubspaceRotationAdjust: set factor to 0.129
ElecMinimize: Iter:  29  F: -1819.904325127471566  |grad|_K:  2.567e-07  alpha:  6.008e-01  linmin:  7.119e-06  t[s]:  56657.40
	FillingsUpdate:  mu: -0.193606707  nElectrons: 339.000000
	SubspaceRotationAdjust: set factor to 0.122
ElecMinimize: Iter:  30  F: -1819.904326708796816  |grad|_K:  3.114e-07  alpha:  4.953e-01  linmin:  2.329e-06  t[s]:  57072.60
	FillingsUpdate:  mu: -0.193600894  nElectrons: 339.000000
	SubspaceRotationAdjust: set factor to 0.0872
ElecMinimize: Iter:  31  F: -1819.904327561825539  |grad|_K:  2.369e-07  alpha:  1.817e-01  linmin:  3.886e-06  t[s]:  57490.28
	FillingsUpdate:  mu: -0.193531842  nElectrons: 339.000000
	SubspaceRotationAdjust: set factor to 0.0954
ElecMinimize: Iter:  32  F: -1819.904328612053860  |grad|_K:  1.581e-07  alpha:  3.869e-01  linmin:  2.925e-05  t[s]:  57904.89
	FillingsUpdate:  mu: -0.193497776  nElectrons: 339.000000
	SubspaceRotationAdjust: set factor to 0.105
ElecMinimize: Iter:  33  F: -1819.904329189171904  |grad|_K:  1.192e-07  alpha:  4.775e-01  linmin:  7.021e-06  t[s]:  58317.43
	FillingsUpdate:  mu: -0.193485937  nElectrons: 339.000000
	SubspaceRotationAdjust: set factor to 0.0928
ElecMinimize: Iter:  34  F: -1819.904329421503007  |grad|_K:  1.135e-07  alpha:  3.372e-01  linmin: -2.007e-06  t[s]:  58730.30
	FillingsUpdate:  mu: -0.193467162  nElectrons: 339.000000
	SubspaceRotationAdjust: set factor to 0.0811
ElecMinimize: Iter:  35  F: -1819.904329557584333  |grad|_K:  7.177e-08  alpha:  2.183e-01  linmin:  6.416e-06  t[s]:  59149.29
	FillingsUpdate:  mu: -0.193458800  nElectrons: 339.000000
	SubspaceRotationAdjust: set factor to 0.107
ElecMinimize: Iter:  36  F: -1819.904329673931670  |grad|_K:  5.518e-08  alpha:  4.654e-01  linmin:  2.345e-05  t[s]:  59567.38
	FillingsUpdate:  mu: -0.193457797  nElectrons: 339.000000
	SubspaceRotationAdjust: set factor to 0.128
ElecMinimize: Iter:  37  F: -1819.904329746374515  |grad|_K:  5.030e-08  alpha:  4.918e-01  linmin: -3.185e-05  t[s]:  59984.30
	FillingsUpdate:  mu: -0.193454472  nElectrons: 339.000000
	SubspaceRotationAdjust: set factor to 0.105
ElecMinimize: Iter:  38  F: -1819.904329785030086  |grad|_K:  5.888e-08  alpha:  3.175e-01  linmin:  6.380e-06  t[s]:  60402.27
	FillingsUpdate:  mu: -0.193458957  nElectrons: 339.000000
	SubspaceRotationAdjust: set factor to 0.0933
ElecMinimize: Iter:  39  F: -1819.904329826024423  |grad|_K:  4.091e-08  alpha:  2.434e-01  linmin:  2.817e-05  t[s]:  60816.28
	FillingsUpdate:  mu: -0.193462251  nElectrons: 339.000000
	SubspaceRotationAdjust: set factor to 0.107
ElecMinimize: Iter:  40  F: -1819.904329867111528  |grad|_K:  3.411e-08  alpha:  5.257e-01  linmin:  2.008e-04  t[s]:  61234.68
	FillingsUpdate:  mu: -0.193467640  nElectrons: 339.000000
	SubspaceRotationAdjust: set factor to 0.129
ElecMinimize: Iter:  41  F: -1819.904329894774946  |grad|_K:  2.742e-08  alpha:  5.152e-01  linmin:  4.098e-06  t[s]:  61655.91
	FillingsUpdate:  mu: -0.193471260  nElectrons: 339.000000
	SubspaceRotationAdjust: set factor to 0.159
ElecMinimize: Iter:  42  F: -1819.904329913827496  |grad|_K:  2.285e-08  alpha:  5.131e-01  linmin:  1.114e-05  t[s]:  62073.88
	FillingsUpdate:  mu: -0.193470718  nElectrons: 339.000000
	SubspaceRotationAdjust: set factor to 0.188
ElecMinimize: Iter:  43  F: -1819.904329925874663  |grad|_K:  1.893e-08  alpha:  4.822e-01  linmin: -1.205e-04  t[s]:  62488.27
	FillingsUpdate:  mu: -0.193470094  nElectrons: 339.000000
	SubspaceRotationAdjust: set factor to 0.133
ElecMinimize: Iter:  44  F: -1819.904329932258179  |grad|_K:  2.452e-08  alpha:  3.077e-01  linmin:  1.135e-04  t[s]:  62903.98
	FillingsUpdate:  mu: -0.193467703  nElectrons: 339.000000
	SubspaceRotationAdjust: set factor to 0.106
ElecMinimize: Iter:  45  F: -1819.904329934459838  |grad|_K:  1.273e-08  alpha:  1.133e-01  linmin: -6.355e-05  t[s]:  63319.24
ElecMinimize: Converged (|Delta F|<1.000000e-08 for 2 iters).
Setting wave functions to eigenvectors of Hamiltonian

# Ionic positions in lattice coordinates:
ion O   0.678934060987717   0.483052135064839   0.324099470707762 1
ion O   0.427838648643801   0.717658095031212   0.324317994252783 1
ion C   0.503075600583394   0.504256955769906   0.296308116659850 1
ion H   0.416136252315956   0.344442647231894   0.316892813586854 1
ion H   0.730994713098670   0.325495247737566   0.303601124437782 1
ion H   0.297624904723728   0.728011691683567   0.303573095408725 1
ion Pt   0.000000000000000   0.000000000000000  -0.166660000000000 0
ion Pt   0.000000000000000   0.500000000000000  -0.166660000000000 0
ion Pt   0.500000000000000   0.000000000000000  -0.166660000000000 0
ion Pt   0.500000000000000   0.500000000000000  -0.166660000000000 0
ion Pt   0.250000000000000   0.250000000000000  -0.083330000000000 0
ion Pt   0.250000000000000   0.750000000000000  -0.083330000000000 0
ion Pt   0.750000000000000   0.250000000000000  -0.083330000000000 0
ion Pt   0.750000000000000   0.750000000000000  -0.083330000000000 0
ion Pt  -0.000002296920878  -0.000012546809783  -0.000073169492437 1
ion Pt  -0.000104966521806   0.499940119578841   0.000116205183110 1
ion Pt   0.499907150635131  -0.000012340644518   0.000289367207038 1
ion Pt   0.499973367862124   0.500087301645830   0.000743825752801 1
ion Pt   0.249554494496595   0.249774191575937   0.086491357193978 1
ion Pt   0.249606733501933   0.750200069691074   0.086425021187462 1
ion Pt   0.750378512680364   0.249751720010378   0.086485624523562 1
ion Pt   0.750477005314263   0.750208189142960   0.086405569715195 1
ion Pt  -0.000033186323545   0.000032764013102   0.168586870779514 1
ion Pt   0.000265277683080   0.500060484355959   0.168541348525945 1
ion Pt   0.500272022024075  -0.000127456382700   0.168297355268752 1
ion Pt   0.499918315010700   0.499208207752800   0.171131946730597 1


# Forces in Lattice coordinates:
force O   0.187841231674330  -0.018164924859966   0.019153568848374 1
force O  -0.068841081809192   0.097199082089323  -0.002703701836030 1
force C  -0.224262183606919  -0.165089087724505   0.044808805437821 1
force H   0.019973163815407   0.033572333825812  -0.289140923153630 1
force H  -0.069556392912622   0.098496501140158   0.073945611580882 1
force H   0.138022786003111  -0.023854251577644   0.074162682246541 1
force Pt  -0.000107122683036   0.000397323476334  -0.451537017327253 0
force Pt   0.000931218903956  -0.000173324944141  -0.438690388945339 0
force Pt   0.001310070834703   0.001680016974286  -0.415921957081523 0
force Pt  -0.000039662299976  -0.001245674430514  -0.493047998891386 0
force Pt   0.013823558588671   0.007473423809239  -0.716393860484120 0
force Pt   0.012190320735900  -0.007615420511975  -0.722809296047357 0
force Pt  -0.015335240714094   0.006189422421594  -0.719143500473963 0
force Pt  -0.013590892916373  -0.006518115806135  -0.727853224374683 0
force Pt  -0.000050128053434   0.000070199808711   0.155143739480261 1
force Pt  -0.002003129873403  -0.001322036439759   0.187859898230389 1
force Pt  -0.002654161005154   0.000733483246665   0.214958892312639 1
force Pt  -0.000856434523941  -0.000367856654856   0.316904313688009 1
force Pt  -0.000242533520136   0.004227556964457   0.513887139711367 1
force Pt   0.004410412564410  -0.007019296999311   0.506896045780339 1
force Pt   0.000047603707237   0.007084004921332   0.510572483297899 1
force Pt  -0.001641684027432  -0.010804133364401   0.507099208176268 1
force Pt  -0.000986144814001   0.000499811713790   0.487750843427062 1
force Pt   0.011693200435134   0.001393640846376   0.459230155254401 1
force Pt   0.011286738051554  -0.003064114107525   0.392705784718360 1
force Pt  -0.002067312193154  -0.014034807601078   0.507704799394951 1

# Energy components:
   Eewald =   -13967.1145757083122589
       EH =   -12432.6932701946971065
     Eloc =    24256.8454982316179667
      Enl =      -15.4005071454609954
      Exc =     -576.8341554229065196
 Exc_core =      324.9917838224080811
       KE =      590.5262949261992844
-------------------------------------
     Etot =    -1819.6789314911493420
       TS =        0.2253984433105384
-------------------------------------
        F =    -1819.9043299344598381

IonicMinimize: Iter:   2  F: -1819.904329934459838  |grad|_K:  7.863e-03  alpha:  7.051e-01  linmin: -4.308e-01  t[s]:  63385.94

#--- Lowdin population analysis ---
# oxidation-state O -0.375 -0.374
# oxidation-state C +0.298
# oxidation-state H +0.207 +0.427 +0.426
# oxidation-state Pt +0.072 +0.072 +0.071 +0.068 -0.045 -0.045 -0.045 -0.045 +0.014 +0.012 +0.013 -0.007 -0.048 -0.054 -0.054 -0.046 -0.012 -0.017 -0.008 -0.063


-------- Electronic minimization -----------
	FillingsUpdate:  mu: +0.107117817  nElectrons: 339.000000
ElecMinimize: Iter:   0  F: -1817.637440037398164  |grad|_K:  4.412e-04  alpha:  1.000e+00
	FillingsUpdate:  mu: -0.007583964  nElectrons: 339.000000
	SubspaceRotationAdjust: set factor to 0.0632
ElecMinimize: Iter:   1  F: -1819.109907812330675  |grad|_K:  3.009e-04  alpha:  1.964e-01  linmin:  3.253e-02  t[s]:  64121.11
	FillingsUpdate:  mu: -0.221530221  nElectrons: 339.000000
	SubspaceRotationAdjust: set factor to 0.132
ElecMinimize: Iter:   2  F: -1819.696363361784506  |grad|_K:  7.672e-05  alpha:  1.633e-01  linmin: -5.130e-04  t[s]:  64537.96
	FillingsUpdate:  mu: -0.199418716  nElectrons: 339.000000
	SubspaceRotationAdjust: set factor to 0.0965
ElecMinimize: Iter:   3  F: -1819.774231349204456  |grad|_K:  5.858e-05  alpha:  2.735e-01  linmin:  1.251e-03  t[s]:  64956.03
	FillingsUpdate:  mu: -0.199724055  nElectrons: 339.000000
	SubspaceRotationAdjust: set factor to 0.0785
ElecMinimize: Iter:   4  F: -1819.797813664479690  |grad|_K:  2.704e-05  alpha:  1.426e-01  linmin: -9.598e-05  t[s]:  65369.64
ElecMinimize: 	Predicted alpha/alphaT>3.000000, increasing alphaT to 4.277989e-01.
	FillingsUpdate:  mu: -0.188073625  nElectrons: 339.000000
	SubspaceRotationAdjust: set factor to 0.113
ElecMinimize: Iter:   5  F: -1819.820083070095507  |grad|_K:  2.542e-05  alpha:  6.284e-01  linmin:  5.430e-05  t[s]:  65889.20
	FillingsUpdate:  mu: -0.177752769  nElectrons: 339.000000
	SubspaceRotationAdjust: set factor to 0.0715
ElecMinimize: Iter:   6  F: -1819.840059226681433  |grad|_K:  3.736e-05  alpha:  6.403e-01  linmin:  3.584e-04  t[s]:  66301.63
	FillingsUpdate:  mu: -0.189430635  nElectrons: 339.000000
	SubspaceRotationAdjust: set factor to 0.0567
ElecMinimize: Iter:   7  F: -1819.853893023639330  |grad|_K:  2.881e-05  alpha:  2.262e-01  linmin:  4.619e-04  t[s]:  66714.95
	FillingsUpdate:  mu: -0.181934210  nElectrons: 339.000000
	SubspaceRotationAdjust: set factor to 0.0627
ElecMinimize: Iter:   8  F: -1819.876705531716652  |grad|_K:  2.479e-05  alpha:  6.034e-01  linmin:  1.322e-04  t[s]:  67132.94
	FillingsUpdate:  mu: -0.172676125  nElectrons: 339.000000
	SubspaceRotationAdjust: set factor to 0.0564
ElecMinimize: Iter:   9  F: -1819.891007276122536  |grad|_K:  2.620e-05  alpha:  4.832e-01  linmin:  1.039e-04  t[s]:  67547.65
	FillingsUpdate:  mu: -0.186036356  nElectrons: 339.000000
	SubspaceRotationAdjust: set factor to 0.0489
ElecMinimize: Iter:  10  F: -1819.902312864817986  |grad|_K:  1.835e-05  alpha:  3.491e-01  linmin: -4.407e-05  t[s]:  67960.76
	FillingsUpdate:  mu: -0.190268406  nElectrons: 339.000000
	SubspaceRotationAdjust: set factor to 0.0557
ElecMinimize: Iter:  11  F: -1819.908133104222998  |grad|_K:  1.102e-05  alpha:  3.549e-01  linmin:  1.882e-05  t[s]:  68379.43
	FillingsUpdate:  mu: -0.189800830  nElectrons: 339.000000
	SubspaceRotationAdjust: set factor to 0.0525
ElecMinimize: Iter:  12  F: -1819.910315004817676  |grad|_K:  8.235e-06  alpha:  3.710e-01  linmin:  3.475e-05  t[s]:  68794.77
	FillingsUpdate:  mu: -0.190972904  nElectrons: 339.000000
	SubspaceRotationAdjust: set factor to 0.0473
ElecMinimize: Iter:  13  F: -1819.911467752667022  |grad|_K:  5.413e-06  alpha:  3.514e-01  linmin: -3.330e-05  t[s]:  69213.19
	FillingsUpdate:  mu: -0.192161567  nElectrons: 339.000000
	SubspaceRotationAdjust: set factor to 0.0587
ElecMinimize: Iter:  14  F: -1819.911987014049600  |grad|_K:  3.588e-06  alpha:  3.651e-01  linmin:  4.642e-06  t[s]:  69626.75
	FillingsUpdate:  mu: -0.192718446  nElectrons: 339.000000
	SubspaceRotationAdjust: set factor to 0.0639
ElecMinimize: Iter:  15  F: -1819.912238415976390  |grad|_K:  2.841e-06  alpha:  4.030e-01  linmin:  3.614e-06  t[s]:  70044.67
	FillingsUpdate:  mu: -0.193254508  nElectrons: 339.000000
	SubspaceRotationAdjust: set factor to 0.0613
ElecMinimize: Iter:  16  F: -1819.912403439539730  |grad|_K:  2.477e-06  alpha:  4.219e-01  linmin: -1.687e-05  t[s]:  70460.80
	FillingsUpdate:  mu: -0.193603641  nElectrons: 339.000000
	SubspaceRotationAdjust: set factor to 0.0675
ElecMinimize: Iter:  17  F: -1819.912511871703828  |grad|_K:  1.812e-06  alpha:  3.643e-01  linmin:  1.575e-07  t[s]:  70874.44
	FillingsUpdate:  mu: -0.194100491  nElectrons: 339.000000
	SubspaceRotationAdjust: set factor to 0.0836
ElecMinimize: Iter:  18  F: -1819.912601733292831  |grad|_K:  1.687e-06  alpha:  5.649e-01  linmin:  3.530e-07  t[s]:  71289.92
	FillingsUpdate:  mu: -0.194031322  nElectrons: 339.000000
	SubspaceRotationAdjust: set factor to 0.0752
ElecMinimize: Iter:  19  F: -1819.912672266750178  |grad|_K:  1.959e-06  alpha:  5.115e-01  linmin: -1.033e-05  t[s]:  71706.09
	FillingsUpdate:  mu: -0.193538676  nElectrons: 339.000000
	SubspaceRotationAdjust: set factor to 0.0631
ElecMinimize: Iter:  20  F: -1819.912728675494691  |grad|_K:  1.586e-06  alpha:  3.028e-01  linmin: -2.817e-06  t[s]:  72119.60
	FillingsUpdate:  mu: -0.193142641  nElectrons: 339.000000
	SubspaceRotationAdjust: set factor to 0.0745
ElecMinimize: Iter:  21  F: -1819.912798358019018  |grad|_K:  1.454e-06  alpha:  5.714e-01  linmin: -6.583e-06  t[s]:  72531.96
	FillingsUpdate:  mu: -0.193039874  nElectrons: 339.000000
	SubspaceRotationAdjust: set factor to 0.0761
ElecMinimize: Iter:  22  F: -1819.912846720492780  |grad|_K:  1.277e-06  alpha:  4.716e-01  linmin: -2.670e-06  t[s]:  72949.53
	FillingsUpdate:  mu: -0.192845012  nElectrons: 339.000000
	SubspaceRotationAdjust: set factor to 0.0637
ElecMinimize: Iter:  23  F: -1819.912874268101177  |grad|_K:  1.062e-06  alpha:  3.482e-01  linmin:  2.021e-06  t[s]:  73366.28
	FillingsUpdate:  mu: -0.192809085  nElectrons: 339.000000
	SubspaceRotationAdjust: set factor to 0.0595
ElecMinimize: Iter:  24  F: -1819.912891817150467  |grad|_K:  7.386e-07  alpha:  3.211e-01  linmin: -1.964e-06  t[s]:  73778.68
	FillingsUpdate:  mu: -0.192792412  nElectrons: 339.000000
	SubspaceRotationAdjust: set factor to 0.0757
ElecMinimize: Iter:  25  F: -1819.912903168543835  |grad|_K:  5.294e-07  alpha:  4.293e-01  linmin:  1.184e-06  t[s]:  74197.70
	FillingsUpdate:  mu: -0.192818672  nElectrons: 339.000000
	SubspaceRotationAdjust: set factor to 0.0793
ElecMinimize: Iter:  26  F: -1819.912909385513103  |grad|_K:  4.741e-07  alpha:  4.578e-01  linmin:  1.019e-06  t[s]:  74615.98
	FillingsUpdate:  mu: -0.192938106  nElectrons: 339.000000
	SubspaceRotationAdjust: set factor to 0.0712
ElecMinimize: Iter:  27  F: -1819.912912862181656  |grad|_K:  3.971e-07  alpha:  3.192e-01  linmin: -2.439e-08  t[s]:  75027.22
	FillingsUpdate:  mu: -0.193079778  nElectrons: 339.000000
	SubspaceRotationAdjust: set factor to 0.075
ElecMinimize: Iter:  28  F: -1819.912915981634114  |grad|_K:  3.178e-07  alpha:  4.082e-01  linmin:  2.958e-06  t[s]:  75439.10
	FillingsUpdate:  mu: -0.193240417  nElectrons: 339.000000
	SubspaceRotationAdjust: set factor to 0.0877
ElecMinimize: Iter:  29  F: -1819.912918419928701  |grad|_K:  2.442e-07  alpha:  4.986e-01  linmin:  4.105e-06  t[s]:  75853.69
	FillingsUpdate:  mu: -0.193344440  nElectrons: 339.000000
	SubspaceRotationAdjust: set factor to 0.0935
ElecMinimize: Iter:  30  F: -1819.912919778900005  |grad|_K:  2.116e-07  alpha:  4.707e-01  linmin: -3.106e-06  t[s]:  76271.33
	FillingsUpdate:  mu: -0.193377483  nElectrons: 339.000000
	SubspaceRotationAdjust: set factor to 0.0779
ElecMinimize: Iter:  31  F: -1819.912920428196912  |grad|_K:  1.918e-07  alpha:  2.992e-01  linmin:  4.726e-06  t[s]:  76683.75
	FillingsUpdate:  mu: -0.193418699  nElectrons: 339.000000
	SubspaceRotationAdjust: set factor to 0.0746
ElecMinimize: Iter:  32  F: -1819.912921013014738  |grad|_K:  1.415e-07  alpha:  3.288e-01  linmin:  3.527e-05  t[s]:  77103.56
	FillingsUpdate:  mu: -0.193420251  nElectrons: 339.000000
	SubspaceRotationAdjust: set factor to 0.0916
ElecMinimize: Iter:  33  F: -1819.912921465957197  |grad|_K:  1.155e-07  alpha:  4.694e-01  linmin:  4.958e-05  t[s]:  77519.97
	FillingsUpdate:  mu: -0.193406590  nElectrons: 339.000000
	SubspaceRotationAdjust: set factor to 0.106
ElecMinimize: Iter:  34  F: -1819.912921797366380  |grad|_K:  1.046e-07  alpha:  5.146e-01  linmin: -2.831e-05  t[s]:  77935.24
	FillingsUpdate:  mu: -0.193394594  nElectrons: 339.000000
	SubspaceRotationAdjust: set factor to 0.0928
ElecMinimize: Iter:  35  F: -1819.912922009492604  |grad|_K:  1.197e-07  alpha:  3.989e-01  linmin:  2.593e-05  t[s]:  78349.21
	FillingsUpdate:  mu: -0.193363820  nElectrons: 339.000000
	SubspaceRotationAdjust: set factor to 0.0707
ElecMinimize: Iter:  36  F: -1819.912922173592960  |grad|_K:  7.590e-08  alpha:  2.364e-01  linmin:  4.751e-06  t[s]:  78762.80
	FillingsUpdate:  mu: -0.193335307  nElectrons: 339.000000
	SubspaceRotationAdjust: set factor to 0.0781
ElecMinimize: Iter:  37  F: -1819.912922295589624  |grad|_K:  5.408e-08  alpha:  4.370e-01  linmin: -6.717e-06  t[s]:  79182.25
	FillingsUpdate:  mu: -0.193322642  nElectrons: 339.000000
	SubspaceRotationAdjust: set factor to 0.0869
ElecMinimize: Iter:  38  F: -1819.912922357307252  |grad|_K:  3.947e-08  alpha:  4.332e-01  linmin: -1.244e-05  t[s]:  79601.40
	FillingsUpdate:  mu: -0.193316894  nElectrons: 339.000000
	SubspaceRotationAdjust: set factor to 0.0875
ElecMinimize: Iter:  39  F: -1819.912922385994079  |grad|_K:  3.092e-08  alpha:  3.859e-01  linmin:  3.862e-05  t[s]:  80008.93
	FillingsUpdate:  mu: -0.193316027  nElectrons: 339.000000
	SubspaceRotationAdjust: set factor to 0.0756
ElecMinimize: Iter:  40  F: -1819.912922399565332  |grad|_K:  2.676e-08  alpha:  2.903e-01  linmin: -1.783e-04  t[s]:  80417.29
	FillingsUpdate:  mu: -0.193311187  nElectrons: 339.000000
	SubspaceRotationAdjust: set factor to 0.0798
ElecMinimize: Iter:  41  F: -1819.912922413018805  |grad|_K:  2.023e-08  alpha:  3.868e-01  linmin:  1.480e-04  t[s]:  80831.24
	FillingsUpdate:  mu: -0.193309978  nElectrons: 339.000000
	SubspaceRotationAdjust: set factor to 0.0942
ElecMinimize: Iter:  42  F: -1819.912922424161934  |grad|_K:  1.770e-08  alpha:  5.730e-01  linmin:  2.897e-04  t[s]:  81250.71
	FillingsUpdate:  mu: -0.193312021  nElectrons: 339.000000
	SubspaceRotationAdjust: set factor to 0.109
ElecMinimize: Iter:  43  F: -1819.912922431455399  |grad|_K:  1.499e-08  alpha:  4.987e-01  linmin: -2.816e-04  t[s]:  81660.14
	FillingsUpdate:  mu: -0.193314064  nElectrons: 339.000000
	SubspaceRotationAdjust: set factor to 0.111
ElecMinimize: Iter:  44  F: -1819.912922437390534  |grad|_K:  1.572e-08  alpha:  4.909e-01  linmin:  6.818e-05  t[s]:  82070.11
ElecMinimize: Converged (|Delta F|<1.000000e-08 for 2 iters).
Setting wave functions to eigenvectors of Hamiltonian

# Ionic positions in lattice coordinates:
ion O   0.678294297101875   0.485363463507784   0.323861544930558 1
ion O   0.429714445344187   0.717585070808442   0.324112547076655 1
ion C   0.502117038234247   0.503504359916335   0.296520720668590 1
ion H   0.415357156061728   0.343438256931900   0.316008665744958 1
ion H   0.730406824535331   0.326523961674751   0.303600664141401 1
ion H   0.298394212842107   0.727406094400148   0.303568998601554 1
ion Pt   0.000000000000000   0.000000000000000  -0.166660000000000 0
ion Pt   0.000000000000000   0.500000000000000  -0.166660000000000 0
ion Pt   0.500000000000000   0.000000000000000  -0.166660000000000 0
ion Pt   0.500000000000000   0.500000000000000  -0.166660000000000 0
ion Pt   0.250000000000000   0.250000000000000  -0.083330000000000 0
ion Pt   0.250000000000000   0.750000000000000  -0.083330000000000 0
ion Pt   0.750000000000000   0.250000000000000  -0.083330000000000 0
ion Pt   0.750000000000000   0.750000000000000  -0.083330000000000 0
ion Pt  -0.000002585723828  -0.000016710016529   0.000283686102740 1
ion Pt  -0.000177114981391   0.499884808718773   0.000632030905495 1
ion Pt   0.499833609985973  -0.000003397722097   0.000945459470439 1
ion Pt   0.499950923894126   0.500121683010622   0.001841814482800 1
[...]
ion C   0.500268446181511   0.502541796217310   0.301311892744113 1
ion H   0.411347880102703   0.339430516237309   0.314861617383726 1
ion H   0.729314440007651   0.333282616993407   0.304103430878429 1
ion H   0.301222208502774   0.727802358865473   0.304181948633148 1
ion Pt   0.000000000000000   0.000000000000000  -0.166660000000000 0
ion Pt   0.000000000000000   0.500000000000000  -0.166660000000000 0
ion Pt   0.500000000000000   0.000000000000000  -0.166660000000000 0
ion Pt   0.500000000000000   0.500000000000000  -0.166660000000000 0
ion Pt   0.250000000000000   0.250000000000000  -0.083330000000000 0
ion Pt   0.250000000000000   0.750000000000000  -0.083330000000000 0
ion Pt   0.750000000000000   0.250000000000000  -0.083330000000000 0
ion Pt   0.750000000000000   0.750000000000000  -0.083330000000000 0
ion Pt   0.000074835354618  -0.000166582996815   0.006186160125642 1
ion Pt  -0.000224611147020   0.499745442514591   0.006676760507026 1
ion Pt   0.499742575415188  -0.000045996219739   0.007418772459197 1
ion Pt   0.499896914740631   0.499956108222995   0.008586804104571 1
ion Pt   0.247227673480069   0.248158308836994   0.099201891767661 1
ion Pt   0.248124866326100   0.750584799144159   0.099088325377717 1
ion Pt   0.753029171903113   0.248893459149218   0.099149104893999 1
ion Pt   0.752692539292285   0.749515582646840   0.099026732824763 1
ion Pt  -0.000157263721123  -0.000183089012248   0.183466191529378 1
ion Pt   0.001790590622482   0.500402835752625   0.183037398080615 1
ion Pt   0.501937559776088  -0.001754546006990   0.180812226716956 1
ion Pt   0.499228998545623   0.495131763810315   0.180258539325525 1


# Forces in Lattice coordinates:
force O  -0.016861331488065   0.051582104505697   0.349220705392042 1
force O  -0.089156162371341   0.023919673193341   0.225473767192543 1
force C  -0.025763964721413  -0.051193574625430   0.020786106830210 1
force H   0.033412040000380   0.046618422938444   0.160508305343995 1
force H   0.055489937372161  -0.063992222879431  -0.056932357572120 1
force H   0.015707044078131   0.016596706528244   0.076196296737089 1
force Pt  -0.000625990341389   0.000231568990767  -0.218158631295629 0
force Pt   0.001745333456210   0.000294581474162  -0.202013560745097 0
force Pt   0.003086098278160   0.001375762113271  -0.164741336502010 0
force Pt  -0.000326365658899  -0.001411859646355  -0.190116017146704 0
force Pt   0.024753576754376   0.009873694239238  -0.088162295828948 0
force Pt   0.023999701483258  -0.010997432247513  -0.094445190081779 0
force Pt  -0.027291606642618   0.007913711191967  -0.087699094867856 0
force Pt  -0.025729001990522  -0.009271181644410  -0.095570223453568 0
force Pt   0.000254749757572  -0.002193968294921   0.108583950906790 1
force Pt   0.003368945035224   0.000240953647488   0.106995763302214 1
force Pt   0.002535461167806  -0.001698733016273   0.125781263278214 1
force Pt   0.000506979118789  -0.002843413626479   0.017958049771635 1
force Pt  -0.020600189535047  -0.010837886437523  -0.067183376172413 1
force Pt  -0.020016847548529   0.003566221391953  -0.062596555352201 1
force Pt   0.024239082816274  -0.010352429579167  -0.067699864960957 1
force Pt   0.022565703587535   0.001555702535432  -0.059220614749813 1
force Pt   0.001283663803878  -0.003493268376825   0.210658172451859 1
force Pt   0.003413134787809  -0.001630191248200   0.179746162890191 1
force Pt   0.003539813376359  -0.005178539724413   0.105768877588463 1
force Pt   0.004627931192825   0.010168844713092  -0.202485817769733 1

# Energy components:
   Eewald =   -14353.7225028614848270
       EH =   -12818.1004558441018162
     Eloc =    25029.2541306979765068
      Enl =      -15.5276477636362582
      Exc =     -576.4915698263689592
 Exc_core =      324.9917442387844062
       KE =      589.8906494398544282
-------------------------------------
     Etot =    -1819.7056519189764003
       TS =        0.2287368098024635
-------------------------------------
        F =    -1819.9343887287789130

IonicMinimize: Iter:   7  F: -1819.934388728778913  |grad|_K:  3.349e-03  alpha:  3.061e-01  linmin: -2.695e-01  t[s]: 157570.99

#--- Lowdin population analysis ---
# oxidation-state O -0.367 -0.356
# oxidation-state C +0.301
# oxidation-state H +0.218 +0.427 +0.426
# oxidation-state Pt +0.076 +0.076 +0.073 +0.072 -0.047 -0.047 -0.047 -0.047 +0.004 +0.003 +0.004 -0.016 -0.049 -0.058 -0.058 -0.046 -0.016 -0.027 -0.017 -0.054


-------- Electronic minimization -----------
	FillingsUpdate:  mu: +0.110942911  nElectrons: 339.000000
ElecMinimize: Iter:   0  F: -1817.915469070612971  |grad|_K:  4.058e-04  alpha:  1.000e+00
	FillingsUpdate:  mu: -0.004655298  nElectrons: 339.000000
	SubspaceRotationAdjust: set factor to 0.0475
ElecMinimize: Iter:   1  F: -1819.300147683271462  |grad|_K:  2.433e-04  alpha:  2.050e-01  linmin:  3.072e-02  t[s]: 158303.78
	FillingsUpdate:  mu: -0.210581315  nElectrons: 339.000000
	SubspaceRotationAdjust: set factor to 0.0912
ElecMinimize: Iter:   2  F: -1819.769353678139623  |grad|_K:  6.141e-05  alpha:  1.898e-01  linmin: -5.205e-04  t[s]: 158719.71
	FillingsUpdate:  mu: -0.193304337  nElectrons: 339.000000
	SubspaceRotationAdjust: set factor to 0.0859
ElecMinimize: Iter:   3  F: -1819.829324539021627  |grad|_K:  3.494e-05  alpha:  3.278e-01  linmin:  5.024e-04  t[s]: 159134.41
	FillingsUpdate:  mu: -0.189219496  nElectrons: 339.000000
	SubspaceRotationAdjust: set factor to 0.0648
ElecMinimize: Iter:   4  F: -1819.840864392866479  |grad|_K:  2.487e-05  alpha:  1.955e-01  linmin: -3.724e-06  t[s]: 159550.45
	FillingsUpdate:  mu: -0.188960694  nElectrons: 339.000000
	SubspaceRotationAdjust: set factor to 0.0839
ElecMinimize: Iter:   5  F: -1819.855643067992787  |grad|_K:  2.139e-05  alpha:  4.970e-01  linmin:  2.564e-04  t[s]: 159965.84
	FillingsUpdate:  mu: -0.189699382  nElectrons: 339.000000
	SubspaceRotationAdjust: set factor to 0.0798
ElecMinimize: Iter:   6  F: -1819.873648959443017  |grad|_K:  2.559e-05  alpha:  8.315e-01  linmin:  2.710e-04  t[s]: 160384.17
	FillingsUpdate:  mu: -0.186532216  nElectrons: 339.000000
	SubspaceRotationAdjust: set factor to 0.064
ElecMinimize: Iter:   7  F: -1819.885198011013017  |grad|_K:  3.108e-05  alpha:  3.973e-01  linmin:  2.853e-04  t[s]: 160798.01
	FillingsUpdate:  mu: -0.185077435  nElectrons: 339.000000
	SubspaceRotationAdjust: set factor to 0.0495
ElecMinimize: Iter:   8  F: -1819.901679557119451  |grad|_K:  2.378e-05  alpha:  3.605e-01  linmin:  2.921e-04  t[s]: 161215.07
	FillingsUpdate:  mu: -0.184388828  nElectrons: 339.000000
	SubspaceRotationAdjust: set factor to 0.0661
ElecMinimize: Iter:   9  F: -1819.919618951446182  |grad|_K:  2.250e-05  alpha:  6.868e-01  linmin:  1.496e-04  t[s]: 161631.49
	FillingsUpdate:  mu: -0.192529772  nElectrons: 339.000000
	SubspaceRotationAdjust: set factor to 0.051
ElecMinimize: Iter:  10  F: -1819.929033897090903  |grad|_K:  1.551e-05  alpha:  4.072e-01  linmin:  1.043e-04  t[s]: 162048.60
	FillingsUpdate:  mu: -0.194083122  nElectrons: 339.000000
	SubspaceRotationAdjust: set factor to 0.0372
ElecMinimize: Iter:  11  F: -1819.932455043006485  |grad|_K:  9.909e-06  alpha:  2.945e-01  linmin:  2.793e-05  t[s]: 162464.08
	FillingsUpdate:  mu: -0.195732430  nElectrons: 339.000000
	SubspaceRotationAdjust: set factor to 0.0405
ElecMinimize: Iter:  12  F: -1819.934685444701017  |grad|_K:  6.093e-06  alpha:  4.685e-01  linmin: -1.035e-04  t[s]: 162880.46
	FillingsUpdate:  mu: -0.196246617  nElectrons: 339.000000
	SubspaceRotationAdjust: set factor to 0.0477
ElecMinimize: Iter:  13  F: -1819.935441354391514  |grad|_K:  3.839e-06  alpha:  4.180e-01  linmin: -4.829e-06  t[s]: 163297.67
	FillingsUpdate:  mu: -0.196803930  nElectrons: 339.000000
	SubspaceRotationAdjust: set factor to 0.0544
ElecMinimize: Iter:  14  F: -1819.935742259778181  |grad|_K:  2.881e-06  alpha:  4.211e-01  linmin:  1.083e-05  t[s]: 163710.97
	FillingsUpdate:  mu: -0.197710367  nElectrons: 339.000000
	SubspaceRotationAdjust: set factor to 0.0568
ElecMinimize: Iter:  15  F: -1819.935941499702267  |grad|_K:  2.291e-06  alpha:  4.951e-01  linmin: -5.569e-05  t[s]: 164127.59
	FillingsUpdate:  mu: -0.197899690  nElectrons: 339.000000
	SubspaceRotationAdjust: set factor to 0.0591
ElecMinimize: Iter:  16  F: -1819.936051914628933  |grad|_K:  1.840e-06  alpha:  4.335e-01  linmin:  2.808e-06  t[s]: 164546.83
	FillingsUpdate:  mu: -0.197910472  nElectrons: 339.000000
	SubspaceRotationAdjust: set factor to 0.0648
ElecMinimize: Iter:  17  F: -1819.936134319066923  |grad|_K:  1.529e-06  alpha:  5.024e-01  linmin: -1.957e-05  t[s]: 164962.81
	FillingsUpdate:  mu: -0.197517561  nElectrons: 339.000000
	SubspaceRotationAdjust: set factor to 0.0762
ElecMinimize: Iter:  18  F: -1819.936198549066376  |grad|_K:  1.273e-06  alpha:  5.661e-01  linmin:  2.861e-07  t[s]: 165374.35
	FillingsUpdate:  mu: -0.197074741  nElectrons: 339.000000
	SubspaceRotationAdjust: set factor to 0.0868
ElecMinimize: Iter:  19  F: -1819.936245578834814  |grad|_K:  1.250e-06  alpha:  5.986e-01  linmin: -3.959e-06  t[s]: 165794.83
	FillingsUpdate:  mu: -0.196525536  nElectrons: 339.000000
	SubspaceRotationAdjust: set factor to 0.0736
ElecMinimize: Iter:  20  F: -1819.936278742931790  |grad|_K:  1.334e-06  alpha:  4.377e-01  linmin: -3.665e-07  t[s]: 166208.96
	FillingsUpdate:  mu: -0.196180036  nElectrons: 339.000000
	SubspaceRotationAdjust: set factor to 0.059
ElecMinimize: Iter:  21  F: -1819.936304543396091  |grad|_K:  1.061e-06  alpha:  2.990e-01  linmin: -1.724e-07  t[s]: 166621.66
	FillingsUpdate:  mu: -0.195674678  nElectrons: 339.000000
	SubspaceRotationAdjust: set factor to 0.062
ElecMinimize: Iter:  22  F: -1819.936329261644005  |grad|_K:  7.630e-07  alpha:  4.529e-01  linmin: -2.504e-06  t[s]: 167041.06
	FillingsUpdate:  mu: -0.195437674  nElectrons: 339.000000
	SubspaceRotationAdjust: set factor to 0.0733
ElecMinimize: Iter:  23  F: -1819.936342430723698  |grad|_K:  5.588e-07  alpha:  4.667e-01  linmin: -5.880e-07  t[s]: 167456.80
	FillingsUpdate:  mu: -0.195400002  nElectrons: 339.000000
	SubspaceRotationAdjust: set factor to 0.0813
ElecMinimize: Iter:  24  F: -1819.936349755954097  |grad|_K:  4.732e-07  alpha:  4.841e-01  linmin: -4.598e-07  t[s]: 167871.08
	FillingsUpdate:  mu: -0.195413093  nElectrons: 339.000000
	SubspaceRotationAdjust: set factor to 0.0728
ElecMinimize: Iter:  25  F: -1819.936353709237665  |grad|_K:  4.365e-07  alpha:  3.643e-01  linmin:  1.007e-06  t[s]: 168291.22
	FillingsUpdate:  mu: -0.195526425  nElectrons: 339.000000
	SubspaceRotationAdjust: set factor to 0.0696
ElecMinimize: Iter:  26  F: -1819.936356490970638  |grad|_K:  3.248e-07  alpha:  3.012e-01  linmin: -5.255e-06  t[s]: 168707.32
	FillingsUpdate:  mu: -0.195667151  nElectrons: 339.000000
	SubspaceRotationAdjust: set factor to 0.0815
ElecMinimize: Iter:  27  F: -1819.936359330204596  |grad|_K:  2.697e-07  alpha:  5.549e-01  linmin: -1.101e-05  t[s]: 169124.57
	FillingsUpdate:  mu: -0.195791481  nElectrons: 339.000000
	SubspaceRotationAdjust: set factor to 0.0935
ElecMinimize: Iter:  28  F: -1819.936361222291453  |grad|_K:  2.140e-07  alpha:  5.364e-01  linmin: -4.116e-06  t[s]: 169537.43
	FillingsUpdate:  mu: -0.195884204  nElectrons: 339.000000
	SubspaceRotationAdjust: set factor to 0.11
ElecMinimize: Iter:  29  F: -1819.936362424378558  |grad|_K:  1.776e-07  alpha:  5.411e-01  linmin:  3.645e-06  t[s]: 169956.96
	FillingsUpdate:  mu: -0.195966065  nElectrons: 339.000000
	SubspaceRotationAdjust: set factor to 0.133
ElecMinimize: Iter:  30  F: -1819.936363191056216  |grad|_K:  1.412e-07  alpha:  5.020e-01  linmin:  2.994e-06  t[s]: 170374.98
	FillingsUpdate:  mu: -0.196012637  nElectrons: 339.000000
	SubspaceRotationAdjust: set factor to 0.13
ElecMinimize: Iter:  31  F: -1819.936363675202756  |grad|_K:  1.356e-07  alpha:  5.008e-01  linmin:  2.660e-05  t[s]: 170793.06
	FillingsUpdate:  mu: -0.195999252  nElectrons: 339.000000
	SubspaceRotationAdjust: set factor to 0.0988
ElecMinimize: Iter:  32  F: -1819.936363874759536  |grad|_K:  1.522e-07  alpha:  2.244e-01  linmin: -1.497e-05  t[s]: 171214.23
	FillingsUpdate:  mu: -0.195980894  nElectrons: 339.000000
	SubspaceRotationAdjust: set factor to 0.106
ElecMinimize: Iter:  33  F: -1819.936364178522808  |grad|_K:  9.815e-08  alpha:  2.710e-01  linmin:  2.036e-05  t[s]: 171633.95
	FillingsUpdate:  mu: -0.195970436  nElectrons: 339.000000
	SubspaceRotationAdjust: set factor to 0.121
ElecMinimize: Iter:  34  F: -1819.936364419710344  |grad|_K:  7.795e-08  alpha:  5.197e-01  linmin:  8.412e-05  t[s]: 172054.03
	FillingsUpdate:  mu: -0.195960347  nElectrons: 339.000000
	SubspaceRotationAdjust: set factor to 0.106
ElecMinimize: Iter:  35  F: -1819.936364532563857  |grad|_K:  8.199e-08  alpha:  3.859e-01  linmin:  3.951e-05  t[s]: 172471.03
	FillingsUpdate:  mu: -0.195959832  nElectrons: 339.000000
	SubspaceRotationAdjust: set factor to 0.0732
ElecMinimize: Iter:  36  F: -1819.936364588506649  |grad|_K:  5.951e-08  alpha:  1.702e-01  linmin: -7.598e-07  t[s]: 172890.47
	FillingsUpdate:  mu: -0.195950883  nElectrons: 339.000000
	SubspaceRotationAdjust: set factor to 0.0913
ElecMinimize: Iter:  37  F: -1819.936364647714754  |grad|_K:  3.723e-08  alpha:  3.498e-01  linmin:  9.322e-05  t[s]: 173305.21
	FillingsUpdate:  mu: -0.195947586  nElectrons: 339.000000
	SubspaceRotationAdjust: set factor to 0.0854
ElecMinimize: Iter:  38  F: -1819.936364673130356  |grad|_K:  3.235e-08  alpha:  3.874e-01  linmin:  1.276e-04  t[s]: 173719.44
	FillingsUpdate:  mu: -0.195948824  nElectrons: 339.000000
	SubspaceRotationAdjust: set factor to 0.0676
ElecMinimize: Iter:  39  F: -1819.936364683565671  |grad|_K:  2.407e-08  alpha:  2.077e-01  linmin:  2.534e-04  t[s]: 174140.05
	FillingsUpdate:  mu: -0.195946969  nElectrons: 339.000000
	SubspaceRotationAdjust: set factor to 0.103
ElecMinimize: Iter:  40  F: -1819.936364695850216  |grad|_K:  1.598e-08  alpha:  3.954e-01  linmin: -1.328e-03  t[s]: 174555.51
	FillingsUpdate:  mu: -0.195946097  nElectrons: 339.000000
	SubspaceRotationAdjust: set factor to 0.0822
ElecMinimize: Iter:  41  F: -1819.936364701328785  |grad|_K:  1.757e-08  alpha:  4.115e-01  linmin: -1.625e-03  t[s]: 174970.34
	FillingsUpdate:  mu: -0.195948824  nElectrons: 339.000000
	SubspaceRotationAdjust: set factor to 0.0678
ElecMinimize: Iter:  42  F: -1819.936364705519054  |grad|_K:  1.473e-08  alpha:  2.395e-01  linmin:  1.144e-04  t[s]: 175390.20
ElecMinimize: Converged (|Delta F|<1.000000e-08 for 2 iters).
Setting wave functions to eigenvectors of Hamiltonian

# Ionic positions in lattice coordinates:
ion O   0.679701616657449   0.487607256772032   0.327059541831774 1
ion O   0.428474312960427   0.721441492040712   0.327743053121101 1
ion C   0.499946524310331   0.502264558113185   0.302255963703784 1
ion H   0.411163661427989   0.340052378698724   0.315425561820785 1
ion H   0.729865839880594   0.333892038857797   0.304208379018989 1
ion H   0.301305039252737   0.728609518761278   0.304489347999201 1
ion Pt   0.000000000000000   0.000000000000000  -0.166660000000000 0
ion Pt   0.000000000000000   0.500000000000000  -0.166660000000000 0
ion Pt   0.500000000000000   0.000000000000000  -0.166660000000000 0
ion Pt   0.500000000000000   0.500000000000000  -0.166660000000000 0
ion Pt   0.250000000000000   0.250000000000000  -0.083330000000000 0
ion Pt   0.250000000000000   0.750000000000000  -0.083330000000000 0
ion Pt   0.750000000000000   0.250000000000000  -0.083330000000000 0
ion Pt   0.750000000000000   0.750000000000000  -0.083330000000000 0
ion Pt   0.000095816471271  -0.000274989129935   0.007682058961751 1
ion Pt  -0.000165068371681   0.499737709720761   0.008173374843697 1
ion Pt   0.499780594245307  -0.000120987389739   0.009058683203543 1
ion Pt   0.499897826849534   0.499833709636970   0.009783805258811 1
ion Pt   0.246274738991983   0.247299724000643   0.100811712750352 1
ion Pt   0.247335430514967   0.750958158654680   0.100722951779771 1
ion Pt   0.754120714194280   0.248183030058291   0.100754328493425 1
ion Pt   0.753659913205309   0.749632633238199   0.100667775291878 1
ion Pt  -0.000158099065868  -0.000350541054925   0.186675401730390 1
ion Pt   0.002089461734276   0.500398526227387   0.186088854735816 1
ion Pt   0.502280583428559  -0.002240294834681   0.183265566759387 1
ion Pt   0.499218038894946   0.494862014504384   0.180697314669622 1


# Forces in Lattice coordinates:
force O  -0.023542600546104  -0.011349107680191   0.224464131622764 1
force O  -0.050243197852960  -0.014062921649016   0.162335802983907 1
force C   0.009905149542144   0.012504954687673   0.013992398703671 1
force H   0.013007807669708   0.021606575071696   0.184896946921875 1
force H   0.027308094599636  -0.005695392576179   0.028435186168298 1
force H  -0.005006745970186   0.017075683167917   0.074710615777310 1
force Pt  -0.000610746779923   0.000313850400649  -0.176043693766349 0
force Pt   0.001793379725334   0.000280241909433  -0.163208755502845 0
force Pt   0.003162001435356   0.001347258138125  -0.125210636756747 0
force Pt  -0.000305797442227  -0.001315645651979  -0.154533302946231 0
force Pt   0.022590167815651   0.007082739811570  -0.002317611133501 0
force Pt   0.022526961647022  -0.008700479633449  -0.010600520133654 0
force Pt  -0.024004273984464   0.005606929721681  -0.002813523685492 0
force Pt  -0.023137663732717  -0.007467410806513  -0.009368154612977 0
force Pt   0.000124185209119  -0.002554358228091   0.015681103113274 1
force Pt   0.002903473598611  -0.000761568274382   0.026756977942693 1
force Pt   0.002265979512401  -0.002231381876131   0.057872818134330 1
force Pt   0.000593588218925  -0.002704230715453  -0.032161989946862 1
force Pt  -0.017259175380435  -0.006119173368305  -0.056704406697949 1
force Pt  -0.020380763512196   0.000418016224934  -0.062070881642156 1
force Pt   0.020011267441656  -0.007682423087441  -0.060393707696901 1
force Pt   0.022853535881277   0.000684408477873  -0.057949805673915 1
force Pt   0.001205311074682  -0.003094860482531   0.129762465322328 1
force Pt   0.002134561458082  -0.003309215390210   0.092445918321568 1
force Pt   0.003032814255822  -0.003734582033954   0.018905731443207 1
force Pt   0.007639543483508   0.012489725129787  -0.085544351311579 1

# Energy components:
   Eewald =   -14423.0994187306823733
       EH =   -12887.6304968861841189
     Eloc =    25168.2481662459686049
      Enl =      -15.5548381184222553
      Exc =     -576.4227747883659276
 Exc_core =      324.9917421037039844
       KE =      589.7605735189780489
-------------------------------------
     Etot =    -1819.7070466550039782
       TS =        0.2293180505150863
-------------------------------------
        F =    -1819.9363647055190540

IonicMinimize: Iter:   8  F: -1819.936364705519054  |grad|_K:  2.023e-03  alpha:  5.877e-01  linmin: -3.139e-01  t[s]: 175456.54
IonicMinimize: None of the convergence criteria satisfied after 8 iterations.

#--- Lowdin population analysis ---
# oxidation-state O -0.365 -0.357
# oxidation-state C +0.298
# oxidation-state H +0.220 +0.424 +0.425
# oxidation-state Pt +0.076 +0.077 +0.074 +0.072 -0.047 -0.047 -0.047 -0.047 +0.002 +0.002 +0.004 -0.016 -0.048 -0.057 -0.057 -0.045 -0.016 -0.028 -0.016 -0.056


Dumping '100_1-Vacuum.fillings' ... done
Dumping '100_1-Vacuum.wfns' ... done
Dumping '100_1-Vacuum.ionpos' ... done
Dumping '100_1-Vacuum.n' ... done
Dumping '100_1-Vacuum.eigenvals' ... done
Dumping '100_1-Vacuum.eigStats' ... 
	eMin: -2.152008 at state 0 ( [ +0.000000 +0.000000 +0.000000 ] spin 0 )
	HOMO: -0.196675 at state 3 ( [ +0.250000 +0.000000 +0.000000 ] spin 0 )
	mu  : -0.195949
	LUMO: -0.195881 at state 0 ( [ +0.000000 +0.000000 +0.000000 ] spin 0 )
	eMax: +0.345705 at state 9 ( [ +0.500000 +0.500000 +0.000000 ] spin 0 )
	HOMO-LUMO gap: +0.000794
	Optical gap  : +0.000882 at state 0 ( [ +0.000000 +0.000000 +0.000000 ] spin 0 )
Dumping '100_1-Vacuum.Ecomponents' ... done
End date and time: Sun May 26 08:06:10 2019  (Duration: 2-0:45:23.59)
Done!
