--------------------------------------------------------------------------
Initialization of PSM library failed.

  Error: PSM is in the finalized state
--------------------------------------------------------------------------
[node2020][[20242,1],0][btl_openib.c:880:mca_btl_openib_add_procs] could not prepare openib device for use
--------------------------------------------------------------------------
The OpenFabrics (openib) BTL failed to initialize while trying to
allocate some locked memory.  This typically can indicate that the
memlock limits are set too low.  For most HPC installations, the
memlock limits should be set to "unlimited".  The failure occured
here:

  Local host:    node2020
  OMPI source:   btl_openib.c:753
  Function:      ompi_free_list_init_ex_new()
  Device:        qib0
  Memlock limit: 65536

You may need to consult with your system administrator to get this
problem fixed.  This FAQ entry on the Open MPI web site may also be
helpful:

    http://www.open-mpi.org/faq/?category=openfabrics#ib-locked-pages
--------------------------------------------------------------------------

*************** JDFTx 1.4.2 (git hash 74b6e54) ***************

Start date and time: Fri May 24 05:29:40 2019
Executable /home/jfm343/JDFTXDIR/build/jdftx with command-line: -i Vacuum.in
Running on hosts (process indices):  node2020.physics.cornell.edu (0)
Divided in process groups (process indices):  0 (0)
Resource initialization completed at t[s]:      0.00
Run totals: 1 processes, 12 threads, 0 GPUs


Input parsed successfully to the following command list (including defaults):

basis kpoint-dependent
coords-type Lattice
core-overlap-check vector
coulomb-interaction Slab 001
coulomb-truncation-embed 0 0 0
davidson-band-ratio 1.1
dump End State IonicPositions ElecDensity EigStats Ecomponents
dump-name 100_0-Vacuum.$VAR
elec-cutoff 20 100
elec-eigen-algo Davidson
elec-ex-corr gga-PBEsol
elec-smearing Fermi 0.01
electronic-minimize  \
	dirUpdateScheme      FletcherReeves \
	linminMethod         DirUpdateRecommended \
	nIterations          200 \
	history              15 \
	knormThreshold       0 \
	energyDiffThreshold  1e-08 \
	nEnergyDiff          2 \
	alphaTstart          1 \
	alphaTmin            1e-10 \
	updateTestStepSize   yes \
	alphaTreduceFactor   0.1 \
	alphaTincreaseFactor 3 \
	nAlphaAdjustMax      3 \
	wolfeEnergy          0.0001 \
	wolfeGradient        0.9 \
	fdTest               no
exchange-regularization WignerSeitzTruncated
fluid None
fluid-ex-corr lda-TF lda-PZ
fluid-gummel-loop 10 1.000000e-05
fluid-minimize  \
	dirUpdateScheme      PolakRibiere \
	linminMethod         DirUpdateRecommended \
	nIterations          100 \
	history              15 \
	knormThreshold       0 \
	energyDiffThreshold  0 \
	nEnergyDiff          2 \
	alphaTstart          1 \
	alphaTmin            1e-10 \
	updateTestStepSize   yes \
	alphaTreduceFactor   0.1 \
	alphaTincreaseFactor 3 \
	nAlphaAdjustMax      3 \
	wolfeEnergy          0.0001 \
	wolfeGradient        0.9 \
	fdTest               no
fluid-solvent H2O 55.338 ScalarEOS \
	epsBulk 78.4 \
	pMol 0.92466 \
	epsInf 1.77 \
	Pvap 1.06736e-10 \
	sigmaBulk 4.62e-05 \
	Rvdw 2.61727 \
	Res 1.42 \
	tauNuc 343133 \
	omegaEl 0.55124 \
	gammaEl 0.257245
forces-output-coords Positions
ion O   0.500000000000000   0.312050000000000   0.335250000000000 1
ion C   0.500000000000000   0.500000000000000   0.295860000000000 1
ion H   0.500000000000000   0.681010000000000   0.324860000000000 1
ion Pt   0.000000000000000   0.000000000000000  -0.166660000000000 0
ion Pt   0.000000000000000   0.500000000000000  -0.166660000000000 0
ion Pt   0.500000000000000   0.000000000000000  -0.166660000000000 0
ion Pt   0.500000000000000   0.500000000000000  -0.166660000000000 0
ion Pt   0.250000000000000   0.250000000000000  -0.083330000000000 0
ion Pt   0.250000000000000   0.750000000000000  -0.083330000000000 0
ion Pt   0.750000000000000   0.250000000000000  -0.083330000000000 0
ion Pt   0.750000000000000   0.750000000000000  -0.083330000000000 0
ion Pt   0.000000000000000   0.000000000000000   0.000000000000000 1
ion Pt   0.000000000000000   0.500000000000000   0.000000000000000 1
ion Pt   0.500000000000000   0.000000000000000   0.000000000000000 1
ion Pt   0.500000000000000   0.500000000000000   0.000000000000000 1
ion Pt   0.250000000000000   0.250000000000000   0.083330000000000 1
ion Pt   0.250000000000000   0.750000000000000   0.083330000000000 1
ion Pt   0.750000000000000   0.250000000000000   0.083330000000000 1
ion Pt   0.750000000000000   0.750000000000000   0.083330000000000 1
ion Pt   0.000000000000000   0.000000000000000   0.166660000000000 1
ion Pt   0.000000000000000   0.500000000000000   0.166660000000000 1
ion Pt   0.500000000000000   0.000000000000000   0.166660000000000 1
ion Pt   0.500000000000000   0.500000000000000   0.166660000000000 1
ion-species GBRV/$ID_pbesol.uspp
ion-width 0
ionic-minimize  \
	dirUpdateScheme      L-BFGS \
	linminMethod         DirUpdateRecommended \
	nIterations          8 \
	history              15 \
	knormThreshold       0.0001 \
	energyDiffThreshold  1e-06 \
	nEnergyDiff          2 \
	alphaTstart          1 \
	alphaTmin            1e-10 \
	updateTestStepSize   yes \
	alphaTreduceFactor   0.1 \
	alphaTincreaseFactor 3 \
	nAlphaAdjustMax      3 \
	wolfeEnergy          0.0001 \
	wolfeGradient        0.9 \
	fdTest               no
kpoint   0.000000000000   0.000000000000   0.000000000000  1.00000000000000
kpoint-folding 4 4 1 
latt-move-scale 1 1 1
latt-scale 1 1 1 
lattice Triclinic 13.6552 10.3852 31.1556 90 90 90
lattice-minimize  \
	dirUpdateScheme      L-BFGS \
	linminMethod         DirUpdateRecommended \
	nIterations          0 \
	history              15 \
	knormThreshold       0 \
	energyDiffThreshold  1e-06 \
	nEnergyDiff          2 \
	alphaTstart          1 \
	alphaTmin            1e-10 \
	updateTestStepSize   yes \
	alphaTreduceFactor   0.1 \
	alphaTincreaseFactor 3 \
	nAlphaAdjustMax      3 \
	wolfeEnergy          0.0001 \
	wolfeGradient        0.9 \
	fdTest               no
lcao-params -1 1e-06 0.01
pcm-variant GLSSA13
spintype no-spin
subspace-rotation-factor 1 yes
symmetries automatic
symmetry-threshold 0.0001



---------- Setting up symmetries ----------

Found 8 point-group symmetries of the bravais lattice
Found 2 space-group symmetries with basis
Applied RMS atom displacement 0 bohrs to make symmetries exact.

---------- Initializing the Grid ----------
R = 
[    13.6552          0          0  ]
[          0    10.3852          0  ]
[          0          0    31.1556  ]
unit cell volume = 4418.23
G =
[   0.460132          0          0  ]
[          0   0.605013          0  ]
[          0          0   0.201671  ]
Minimum fftbox size, Smin = [  64  48  144  ]
Chosen fftbox size, S = [  64  48  144  ]

---------- Initializing tighter grid for wavefunction operations ----------
R = 
[    13.6552          0          0  ]
[          0    10.3852          0  ]
[          0          0    31.1556  ]
unit cell volume = 4418.23
G =
[   0.460132          0          0  ]
[          0   0.605013          0  ]
[          0          0   0.201671  ]
Minimum fftbox size, Smin = [  56  44  128  ]
Chosen fftbox size, S = [  56  48  128  ]

---------- Exchange Correlation functional ----------
Initalized PBEsol GGA exchange.
Initalized PBEsol GGA correlation.

---------- Setting up pseudopotentials ----------
Width of ionic core gaussian charges (only for fluid interactions / plotting) set to 0

Reading pseudopotential file '/home/jfm343/JDFTXDIR/build/pseudopotentials/GBRV/o_pbesol.uspp':
  Title: O.  Created by USPP 7.3.6 on 3-2-2014
  Reference state energy: -15.849885.  6 valence electrons in orbitals:
    |200>  occupation: 2  eigenvalue: -0.873214
    |210>  occupation: 4  eigenvalue: -0.330058
  lMax: 2  lLocal: 2  QijEcut: 6
  5 projectors sampled on a log grid with 511 points:
    l: 0  eig: -0.873214  rCut: 1.25
    l: 0  eig: 0.000000  rCut: 1.25
    l: 1  eig: -0.330058  rCut: 1.25
    l: 1  eig: 0.000000  rCut: 1.25
    l: 2  eig: 1.000000  rCut: 1.25
  Partial core density with radius 0.7
  Transforming core density to a uniform radial grid of dG=0.02 with 1269 points.
  Transforming local potential to a uniform radial grid of dG=0.02 with 1269 points.
  Transforming nonlocal projectors to a uniform radial grid of dG=0.02 with 432 points.
  Transforming density augmentations to a uniform radial grid of dG=0.02 with 1269 points.
  Transforming atomic orbitals to a uniform radial grid of dG=0.02 with 432 points.
  Core radius for overlap checks: 1.25 bohrs.

Reading pseudopotential file '/home/jfm343/JDFTXDIR/build/pseudopotentials/GBRV/c_pbesol.uspp':
  Title: C.  Created by USPP 7.3.6 on 3-2-2014
  Reference state energy: -5.383511.  4 valence electrons in orbitals:
    |200>  occupation: 2  eigenvalue: -0.501126
    |210>  occupation: 2  eigenvalue: -0.192448
  lMax: 1  lLocal: 2  QijEcut: 5
  4 projectors sampled on a log grid with 503 points:
    l: 0  eig: -0.501126  rCut: 1.3
    l: 0  eig: 0.000000  rCut: 1.3
    l: 1  eig: -0.192448  rCut: 1.3
    l: 1  eig: 0.000000  rCut: 1.3
  Partial core density with radius 1.1
  Transforming core density to a uniform radial grid of dG=0.02 with 1269 points.
  Transforming local potential to a uniform radial grid of dG=0.02 with 1269 points.
  Transforming nonlocal projectors to a uniform radial grid of dG=0.02 with 432 points.
  Transforming density augmentations to a uniform radial grid of dG=0.02 with 1269 points.
  Transforming atomic orbitals to a uniform radial grid of dG=0.02 with 432 points.
  Core radius for overlap checks: 1.30 bohrs.

Reading pseudopotential file '/home/jfm343/JDFTXDIR/build/pseudopotentials/GBRV/h_pbesol.uspp':
  Title: H.  Created by USPP 7.3.6 on 22-9-15
  Reference state energy: -0.449841.  1 valence electrons in orbitals:
    |100>  occupation: 1  eigenvalue: -0.232690
  lMax: 0  lLocal: 1  QijEcut: 6
  2 projectors sampled on a log grid with 395 points:
    l: 0  eig: -0.232690  rCut: 1.2
    l: 0  eig: 1.000000  rCut: 1.2
  Transforming local potential to a uniform radial grid of dG=0.02 with 1269 points.
  Transforming nonlocal projectors to a uniform radial grid of dG=0.02 with 432 points.
  Transforming density augmentations to a uniform radial grid of dG=0.02 with 1269 points.
  Transforming atomic orbitals to a uniform radial grid of dG=0.02 with 432 points.
  Core radius for overlap checks: 1.20 bohrs.

Reading pseudopotential file '/home/jfm343/JDFTXDIR/build/pseudopotentials/GBRV/pt_pbesol.uspp':
  Title: Pt.  Created by USPP 7.3.6 on 22-9-15
  Reference state energy: -104.899005.  16 valence electrons in orbitals:
    |510>  occupation: 6  eigenvalue: -2.158847
    |520>  occupation: 9.5  eigenvalue: -0.336311
    |600>  occupation: 0  eigenvalue: -0.320324
    |610>  occupation: 0  eigenvalue: -0.119800
  lMax: 2  lLocal: 3  QijEcut: 5.5
  6 projectors sampled on a log grid with 745 points:
    l: 0  eig: -0.320324  rCut: 2.45
    l: 0  eig: 1.500000  rCut: 2.45
    l: 1  eig: -2.158847  rCut: 1.6
    l: 1  eig: -0.119800  rCut: 1.6
    l: 2  eig: -0.500000  rCut: 1.6
    l: 2  eig: -0.336311  rCut: 1.6
  Partial core density with radius 1.1
  Transforming core density to a uniform radial grid of dG=0.02 with 1269 points.
  Transforming local potential to a uniform radial grid of dG=0.02 with 1269 points.
  Transforming nonlocal projectors to a uniform radial grid of dG=0.02 with 432 points.
  Transforming density augmentations to a uniform radial grid of dG=0.02 with 1269 points.
  Transforming atomic orbitals to a uniform radial grid of dG=0.02 with 432 points.
  Core radius for overlap checks: 2.45 bohrs.

Initialized 4 species with 23 total atoms.

Folded 1 k-points by 4x4x1 to 16 k-points.

---------- Setting up k-points, bands, fillings ----------
Adding inversion symmetry to k-mesh for non-inversion-symmetric unit cell.
Reduced to 9 k-points under symmetry. 
Computing the number of bands and number of electrons
Calculating initial fillings.
nElectrons: 331.000000   nBands: 249   nStates: 9

----- Setting up reduced wavefunction bases (one per k-point) -----
average nbasis = 18876.562 , ideal nbasis = 18875.034

---------- Setting up coulomb interaction ----------
Setting up double-sized grid for truncated Coulomb potentials:
R = 
[    13.6552          0          0  ]
[          0    10.3852          0  ]
[          0          0    62.3112  ]
unit cell volume = 8836.47
G =
[   0.460132          0          0  ]
[          0   0.605013          0  ]
[          0          0   0.100836  ]
Chosen fftbox size, S = [  64  48  288  ]
Integer grid location selected as the embedding center:
   Grid: [  0  0  0  ]
   Lattice: [  0  0  0  ]
   Cartesian: [  0  0  0  ]
Constructing Wigner-Seitz cell: 6 faces (6 quadrilaterals, 0 hexagons)
Range-separation parameter for embedded mesh potentials due to point charges: 0.586809 bohrs.
Initialized slab truncation along lattice direction 001

---------- Setting up 2D ewald sum ----------
Optimum gaussian width for ewald sums = 7.104097 bohr.
Real space sums over 221 unit cells with max indices [  6  8  0  ]
Reciprocal space sums over 81 terms with max indices [  4  4  0  ]

---------- Allocating electronic variables ----------
Initializing wave functions:  linear combination of atomic orbitals
O pseudo-atom occupations:   s ( 2 )  p ( 4 )
C pseudo-atom occupations:   s ( 2 )  p ( 2 )
H pseudo-atom occupations:   s ( 1 )
Pt pseudo-atom occupations:   s ( 0 )  p ( 6 0 )  d ( 10 )
	FillingsUpdate:  mu: -2.047439565  nElectrons: 331.000000
LCAOMinimize: Iter:   0  F: -1788.6076645524542528  |grad|_K:  2.613e-02  alpha:  1.000e+00
LCAOMinimize: 	Step increased F by 1.905066e+02, reducing alpha to 1.991372e-02.
	FillingsUpdate:  mu: -1.503243788  nElectrons: 331.000000
LCAOMinimize: Iter:   1  F: -1794.3626891046881155  |grad|_K:  1.784e-02  alpha:  1.991e-02  linmin: -1.644e-01  cgtest:  5.821e-01  t[s]:    363.28
	FillingsUpdate:  mu: -0.184104886  nElectrons: 331.000000
LCAOMinimize: Iter:   2  F: -1798.6034713895021468  |grad|_K:  2.578e-02  alpha:  5.374e-02  linmin:  6.837e-02  cgtest: -3.283e-01  t[s]:    451.51
	FillingsUpdate:  mu: +0.103111592  nElectrons: 331.000000
LCAOMinimize: Iter:   3  F: -1798.8523084882165222  |grad|_K:  2.396e-02  alpha:  5.714e-03  linmin:  1.265e-02  cgtest:  9.739e-01  t[s]:    539.41
LCAOMinimize: Encountered beta<0, resetting CG.
	FillingsUpdate:  mu: -0.190019260  nElectrons: 331.000000
LCAOMinimize: Iter:   4  F: -1800.4945353550867821  |grad|_K:  7.166e-03  alpha:  1.011e-02  linmin: -2.042e-02  cgtest:  9.245e-02  t[s]:    628.75
LCAOMinimize: 	Predicted alpha/alphaT>3.000000, increasing alphaT to 3.033267e-02.
	FillingsUpdate:  mu: -0.489014863  nElectrons: 331.000000
LCAOMinimize: Iter:   5  F: -1801.4556507576517106  |grad|_K:  3.478e-03  alpha:  6.618e-02  linmin:  1.851e-03  cgtest: -8.529e-02  t[s]:    738.28
	FillingsUpdate:  mu: -0.342503811  nElectrons: 331.000000
LCAOMinimize: Iter:   6  F: -1801.6243674248130446  |grad|_K:  5.264e-03  alpha:  4.977e-02  linmin: -2.494e-04  cgtest:  1.557e-02  t[s]:    826.96
	FillingsUpdate:  mu: -0.202664683  nElectrons: 331.000000
LCAOMinimize: Iter:   7  F: -1801.8941308945484252  |grad|_K:  2.361e-03  alpha:  3.360e-02  linmin:  1.453e-03  cgtest:  7.056e-01  t[s]:    915.16
LCAOMinimize: Encountered beta<0, resetting CG.
	FillingsUpdate:  mu: -0.207693640  nElectrons: 331.000000
LCAOMinimize: Iter:   8  F: -1801.9281591283472608  |grad|_K:  1.972e-03  alpha:  2.177e-02  linmin:  1.286e-04  cgtest:  1.651e-02  t[s]:   1002.30
LCAOMinimize: 	Predicted alpha/alphaT>3.000000, increasing alphaT to 6.531667e-02.
	FillingsUpdate:  mu: -0.246189959  nElectrons: 331.000000
LCAOMinimize: Iter:   9  F: -1802.0270209331938531  |grad|_K:  1.367e-03  alpha:  8.926e-02  linmin: -9.010e-03  cgtest: -4.131e-01  t[s]:   1114.30
	FillingsUpdate:  mu: -0.250084952  nElectrons: 331.000000
LCAOMinimize: Iter:  10  F: -1802.0455830432099447  |grad|_K:  1.436e-03  alpha:  3.399e-02  linmin:  1.042e-03  cgtest: -1.985e-01  t[s]:   1205.26
	FillingsUpdate:  mu: -0.256832458  nElectrons: 331.000000
LCAOMinimize: Iter:  11  F: -1802.0972836658688720  |grad|_K:  8.833e-04  alpha:  9.056e-02  linmin:  1.356e-03  cgtest:  4.959e-01  t[s]:   1291.63
	FillingsUpdate:  mu: -0.211649547  nElectrons: 331.000000
LCAOMinimize: Iter:  12  F: -1802.1296180647207166  |grad|_K:  5.878e-04  alpha:  1.551e-01  linmin:  3.877e-02  cgtest: -1.455e-01  t[s]:   1377.98
	FillingsUpdate:  mu: -0.213757834  nElectrons: 331.000000
LCAOMinimize: Iter:  13  F: -1802.1307521733847352  |grad|_K:  2.634e-04  alpha:  1.395e-02  linmin:  1.070e-02  cgtest:  2.842e-01  t[s]:   1465.34
LCAOMinimize: 	Predicted alpha/alphaT>3.000000, increasing alphaT to 4.185357e-02.
LCAOMinimize: 	Predicted alpha/alphaT>3.000000, increasing alphaT to 1.255607e-01.
	FillingsUpdate:  mu: -0.223172118  nElectrons: 331.000000
LCAOMinimize: Iter:  14  F: -1802.1333982847281732  |grad|_K:  1.147e-04  alpha:  1.365e-01  linmin:  2.087e-03  cgtest: -5.865e-02  t[s]:   1599.43
	FillingsUpdate:  mu: -0.229389178  nElectrons: 331.000000
LCAOMinimize: Iter:  15  F: -1802.1341789454450009  |grad|_K:  9.367e-05  alpha:  2.125e-01  linmin:  2.416e-03  cgtest: -2.328e-03  t[s]:   1687.92
	FillingsUpdate:  mu: -0.230312238  nElectrons: 331.000000
LCAOMinimize: Iter:  16  F: -1802.1343488980107850  |grad|_K:  1.195e-04  alpha:  6.855e-02  linmin: -1.346e-03  cgtest:  2.067e-02  t[s]:   1774.67
	FillingsUpdate:  mu: -0.230963348  nElectrons: 331.000000
LCAOMinimize: Iter:  17  F: -1802.1344287681699825  |grad|_K:  3.500e-05  alpha:  1.978e-02  linmin:  1.561e-03  cgtest: -6.989e-02  t[s]:   1864.62
LCAOMinimize: 	Predicted alpha/alphaT>3.000000, increasing alphaT to 5.933136e-02.
	FillingsUpdate:  mu: -0.229449997  nElectrons: 331.000000
LCAOMinimize: Iter:  18  F: -1802.1344808846927208  |grad|_K:  3.190e-05  alpha:  1.519e-01  linmin:  1.641e-04  cgtest:  2.010e-02  t[s]:   1975.22
	FillingsUpdate:  mu: -0.229382334  nElectrons: 331.000000
LCAOMinimize: Iter:  19  F: -1802.1344949090096179  |grad|_K:  4.549e-05  alpha:  4.912e-02  linmin:  1.231e-04  cgtest: -8.430e-04  t[s]:   2063.82
	FillingsUpdate:  mu: -0.229301750  nElectrons: 331.000000
LCAOMinimize: Iter:  20  F: -1802.1345182271654721  |grad|_K:  1.640e-05  alpha:  4.012e-02  linmin: -2.304e-05  cgtest:  2.909e-03  t[s]:   2153.06
	FillingsUpdate:  mu: -0.229227968  nElectrons: 331.000000
LCAOMinimize: Iter:  21  F: -1802.1345272971270788  |grad|_K:  1.391e-05  alpha:  1.200e-01  linmin:  1.162e-04  cgtest: -2.455e-03  t[s]:   2242.03
	FillingsUpdate:  mu: -0.229196596  nElectrons: 331.000000
LCAOMinimize: Iter:  22  F: -1802.1345282881122785  |grad|_K:  8.080e-06  alpha:  1.820e-02  linmin:  3.657e-05  cgtest:  1.167e-03  t[s]:   2329.60
LCAOMinimize: 	Predicted alpha/alphaT>3.000000, increasing alphaT to 5.461408e-02.
	FillingsUpdate:  mu: -0.229195648  nElectrons: 331.000000
LCAOMinimize: Iter:  23  F: -1802.1345295674234421  |grad|_K:  3.773e-06  alpha:  6.969e-02  linmin:  1.196e-04  cgtest: -3.855e-03  t[s]:   2439.46
	FillingsUpdate:  mu: -0.229201054  nElectrons: 331.000000
LCAOMinimize: Iter:  24  F: -1802.1345300532614147  |grad|_K:  6.442e-06  alpha:  1.210e-01  linmin: -2.001e-04  cgtest:  1.458e-03  t[s]:   2527.90
	FillingsUpdate:  mu: -0.229210344  nElectrons: 331.000000
LCAOMinimize: Iter:  25  F: -1802.1345302977920255  |grad|_K:  2.995e-06  alpha:  2.092e-02  linmin: -8.068e-05  cgtest: -7.053e-03  t[s]:   2615.74
LCAOMinimize: Converged (|Delta F|<1.000000e-06 for 2 iters).


---- Citations for features of the code used in this run ----

   Software package:
      R. Sundararaman, K. Letchworth-Weaver, K.A. Schwarz, D. Gunceler, Y. Ozhabes and T.A. Arias, 'JDFTx: software for joint density-functional theory', SoftwareX 6, 278 (2017)

   gga-PBEsol exchange-correlation functional:
      J.P. Perdew et al., Phys. Rev. Lett. 100, 136406 (2008)

   Pseudopotentials:
      KF Garrity, JW Bennett, KM Rabe and D Vanderbilt, Comput. Mater. Sci. 81, 446 (2014)

   Truncated Coulomb potentials:
      R. Sundararaman and T.A. Arias, Phys. Rev. B 87, 165122 (2013)

   Total energy minimization with Auxiliary Hamiltonian:
      C. Freysoldt, S. Boeck, and J. Neugebauer, Phys. Rev. B 79, 241103(R) (2009)

This list may not be complete. Please suggest additional citations or
report any other bugs at https://github.com/shankar1729/jdftx/issues

Initialization completed successfully at t[s]:   2689.86


-------- Electronic minimization -----------
	FillingsUpdate:  mu: -0.229210344  nElectrons: 331.000000
ElecMinimize: Iter:   0  F: -1802.134530297784295  |grad|_K:  1.431e-04  alpha:  1.000e+00
	FillingsUpdate:  mu: -0.175146809  nElectrons: 331.000000
	SubspaceRotationAdjust: set factor to 1
ElecMinimize: Iter:   1  F: -1802.530012453497193  |grad|_K:  7.573e-05  alpha:  4.608e-01  linmin:  7.623e-05  t[s]:   3204.05
	FillingsUpdate:  mu: -0.244352613  nElectrons: 331.000000
	SubspaceRotationAdjust: set factor to 0.63
ElecMinimize: Iter:   2  F: -1802.585627342209591  |grad|_K:  9.202e-05  alpha:  2.287e-01  linmin: -2.217e-05  t[s]:   3556.56
	FillingsUpdate:  mu: -0.206982682  nElectrons: 331.000000
	SubspaceRotationAdjust: set factor to 0.492
ElecMinimize: Iter:   3  F: -1802.623953050514274  |grad|_K:  4.749e-05  alpha:  1.052e-01  linmin: -1.020e-05  t[s]:   3917.06
	FillingsUpdate:  mu: -0.205331566  nElectrons: 331.000000
	SubspaceRotationAdjust: set factor to 0.308
ElecMinimize: Iter:   4  F: -1802.627267190488283  |grad|_K:  3.824e-05  alpha:  3.412e-02  linmin: -1.550e-05  t[s]:   4270.32
ElecMinimize: 	Predicted alpha/alphaT>3.000000, increasing alphaT to 1.023714e-01.
	FillingsUpdate:  mu: -0.193207168  nElectrons: 331.000000
	SubspaceRotationAdjust: set factor to 0.205
ElecMinimize: Iter:   5  F: -1802.641984709023291  |grad|_K:  3.124e-05  alpha:  2.355e-01  linmin:  1.650e-05  t[s]:   4712.54
	FillingsUpdate:  mu: -0.195798688  nElectrons: 331.000000
	SubspaceRotationAdjust: set factor to 0.141
ElecMinimize: Iter:   6  F: -1802.644032119525491  |grad|_K:  1.765e-05  alpha:  4.986e-02  linmin:  1.953e-05  t[s]:   5070.16
ElecMinimize: 	Predicted alpha/alphaT>3.000000, increasing alphaT to 1.495820e-01.
	FillingsUpdate:  mu: -0.200749946  nElectrons: 331.000000
	SubspaceRotationAdjust: set factor to 0.0897
	SubspaceRotationAdjust: resetting CG because factor has changed by 0.0897241
ElecMinimize: 	State modified externally: resetting search direction.
ElecMinimize: Iter:   7  F: -1802.647496996678456  |grad|_K:  1.679e-05  alpha:  2.629e-01
	FillingsUpdate:  mu: -0.202889003  nElectrons: 331.000000
	SubspaceRotationAdjust: set factor to 0.0646
ElecMinimize: Iter:   8  F: -1802.649185424638745  |grad|_K:  6.996e-06  alpha:  1.406e-01  linmin: -2.669e-05  t[s]:   6002.31
ElecMinimize: 	Predicted alpha/alphaT>3.000000, increasing alphaT to 4.217548e-01.
	FillingsUpdate:  mu: -0.198949989  nElectrons: 331.000000
	SubspaceRotationAdjust: set factor to 0.0738
ElecMinimize: Iter:   9  F: -1802.650233331501340  |grad|_K:  4.707e-06  alpha:  5.028e-01  linmin:  1.426e-05  t[s]:   6445.09
	FillingsUpdate:  mu: -0.200325779  nElectrons: 331.000000
	SubspaceRotationAdjust: set factor to 0.0937
ElecMinimize: Iter:  10  F: -1802.650811373327087  |grad|_K:  3.753e-06  alpha:  6.136e-01  linmin:  1.969e-05  t[s]:   6798.87
	FillingsUpdate:  mu: -0.200928425  nElectrons: 331.000000
	SubspaceRotationAdjust: set factor to 0.115
ElecMinimize: Iter:  11  F: -1802.651180486872363  |grad|_K:  3.695e-06  alpha:  6.169e-01  linmin:  2.339e-05  t[s]:   7147.92
	FillingsUpdate:  mu: -0.199782137  nElectrons: 331.000000
	SubspaceRotationAdjust: set factor to 0.0948
ElecMinimize: Iter:  12  F: -1802.651527808469382  |grad|_K:  5.635e-06  alpha:  6.005e-01  linmin:  2.121e-05  t[s]:   7503.85
	FillingsUpdate:  mu: -0.199628352  nElectrons: 331.000000
	SubspaceRotationAdjust: set factor to 0.0775
ElecMinimize: Iter:  13  F: -1802.651855693878360  |grad|_K:  4.464e-06  alpha:  2.411e-01  linmin: -8.401e-06  t[s]:   7860.42
	FillingsUpdate:  mu: -0.199715160  nElectrons: 331.000000
	SubspaceRotationAdjust: set factor to 0.0911
ElecMinimize: Iter:  14  F: -1802.652301486118631  |grad|_K:  4.318e-06  alpha:  5.296e-01  linmin:  2.707e-05  t[s]:   8218.38
	FillingsUpdate:  mu: -0.199227570  nElectrons: 331.000000
	SubspaceRotationAdjust: set factor to 0.0804
ElecMinimize: Iter:  15  F: -1802.652588100738285  |grad|_K:  4.449e-06  alpha:  3.682e-01  linmin: -4.848e-06  t[s]:   8572.92
	FillingsUpdate:  mu: -0.198845407  nElectrons: 331.000000
	SubspaceRotationAdjust: set factor to 0.069
ElecMinimize: Iter:  16  F: -1802.652822907075006  |grad|_K:  2.997e-06  alpha:  2.774e-01  linmin: -3.979e-06  t[s]:   8926.70
	FillingsUpdate:  mu: -0.198110202  nElectrons: 331.000000
	SubspaceRotationAdjust: set factor to 0.0882
ElecMinimize: Iter:  17  F: -1802.652957781040641  |grad|_K:  1.883e-06  alpha:  3.517e-01  linmin: -1.403e-06  t[s]:   9285.84
	FillingsUpdate:  mu: -0.197754898  nElectrons: 331.000000
	SubspaceRotationAdjust: set factor to 0.0877
ElecMinimize: Iter:  18  F: -1802.653010573414576  |grad|_K:  1.657e-06  alpha:  3.494e-01  linmin:  1.357e-06  t[s]:   9640.74
	FillingsUpdate:  mu: -0.197632624  nElectrons: 331.000000
	SubspaceRotationAdjust: set factor to 0.0943
ElecMinimize: Iter:  19  F: -1802.653042672352967  |grad|_K:  1.232e-06  alpha:  2.745e-01  linmin:  5.597e-07  t[s]:   9997.28
	FillingsUpdate:  mu: -0.197264027  nElectrons: 331.000000
	SubspaceRotationAdjust: set factor to 0.109
ElecMinimize: Iter:  20  F: -1802.653071354977556  |grad|_K:  9.471e-07  alpha:  4.446e-01  linmin:  7.902e-06  t[s]:  10345.28
	FillingsUpdate:  mu: -0.196891786  nElectrons: 331.000000
	SubspaceRotationAdjust: set factor to 0.1
ElecMinimize: Iter:  21  F: -1802.653091587982999  |grad|_K:  1.096e-06  alpha:  5.324e-01  linmin:  4.138e-06  t[s]:  10698.26
	FillingsUpdate:  mu: -0.196872608  nElectrons: 331.000000
	SubspaceRotationAdjust: set factor to 0.0986
ElecMinimize: Iter:  22  F: -1802.653106348220490  |grad|_K:  1.160e-06  alpha:  2.892e-01  linmin:  6.579e-07  t[s]:  11054.28
	FillingsUpdate:  mu: -0.197039218  nElectrons: 331.000000
	SubspaceRotationAdjust: set factor to 0.117
ElecMinimize: Iter:  23  F: -1802.653129343673527  |grad|_K:  1.059e-06  alpha:  4.026e-01  linmin:  4.325e-06  t[s]:  11408.38
	FillingsUpdate:  mu: -0.197426347  nElectrons: 331.000000
	SubspaceRotationAdjust: set factor to 0.134
ElecMinimize: Iter:  24  F: -1802.653152416045486  |grad|_K:  1.144e-06  alpha:  4.886e-01  linmin:  4.459e-06  t[s]:  11763.88
	FillingsUpdate:  mu: -0.197706228  nElectrons: 331.000000
	SubspaceRotationAdjust: set factor to 0.122
ElecMinimize: Iter:  25  F: -1802.653166513650376  |grad|_K:  1.228e-06  alpha:  2.537e-01  linmin: -1.678e-06  t[s]:  12120.40
	FillingsUpdate:  mu: -0.197916927  nElectrons: 331.000000
	SubspaceRotationAdjust: set factor to 0.139
ElecMinimize: Iter:  26  F: -1802.653183322979430  |grad|_K:  8.691e-07  alpha:  2.610e-01  linmin:  2.193e-06  t[s]:  12472.06
	FillingsUpdate:  mu: -0.198160619  nElectrons: 331.000000
	SubspaceRotationAdjust: set factor to 0.172
ElecMinimize: Iter:  27  F: -1802.653196202151776  |grad|_K:  7.302e-07  alpha:  4.030e-01  linmin:  3.453e-06  t[s]:  12831.14
	FillingsUpdate:  mu: -0.198409620  nElectrons: 331.000000
	SubspaceRotationAdjust: set factor to 0.128
ElecMinimize: Iter:  28  F: -1802.653203140320784  |grad|_K:  8.456e-07  alpha:  3.069e-01  linmin:  1.784e-07  t[s]:  13188.17
	FillingsUpdate:  mu: -0.198516999  nElectrons: 331.000000
	SubspaceRotationAdjust: set factor to 0.134
ElecMinimize: Iter:  29  F: -1802.653207739040454  |grad|_K:  6.125e-07  alpha:  1.509e-01  linmin: -4.018e-07  t[s]:  13542.72
	FillingsUpdate:  mu: -0.198603183  nElectrons: 331.000000
	SubspaceRotationAdjust: set factor to 0.173
ElecMinimize: Iter:  30  F: -1802.653213457524316  |grad|_K:  5.110e-07  alpha:  3.584e-01  linmin:  2.520e-06  t[s]:  13897.03
	FillingsUpdate:  mu: -0.198563170  nElectrons: 331.000000
	SubspaceRotationAdjust: set factor to 0.127
ElecMinimize: Iter:  31  F: -1802.653216857524512  |grad|_K:  6.459e-07  alpha:  3.067e-01  linmin:  5.975e-07  t[s]:  14251.74
	FillingsUpdate:  mu: -0.198459616  nElectrons: 331.000000
	SubspaceRotationAdjust: set factor to 0.138
ElecMinimize: Iter:  32  F: -1802.653219434443827  |grad|_K:  4.408e-07  alpha:  1.450e-01  linmin: -2.958e-07  t[s]:  14605.97
	FillingsUpdate:  mu: -0.198348588  nElectrons: 331.000000
	SubspaceRotationAdjust: set factor to 0.165
ElecMinimize: Iter:  33  F: -1802.653222817685901  |grad|_K:  4.426e-07  alpha:  4.094e-01  linmin:  1.569e-06  t[s]:  14960.50
	FillingsUpdate:  mu: -0.198299087  nElectrons: 331.000000
	SubspaceRotationAdjust: set factor to 0.144
ElecMinimize: Iter:  34  F: -1802.653224528410874  |grad|_K:  4.894e-07  alpha:  2.055e-01  linmin: -1.252e-07  t[s]:  15317.75
	FillingsUpdate:  mu: -0.198164068  nElectrons: 331.000000
	SubspaceRotationAdjust: set factor to 0.184
ElecMinimize: Iter:  35  F: -1802.653226698551180  |grad|_K:  3.523e-07  alpha:  2.128e-01  linmin:  1.523e-07  t[s]:  15672.83
	FillingsUpdate:  mu: -0.197990422  nElectrons: 331.000000
	SubspaceRotationAdjust: set factor to 0.169
ElecMinimize: Iter:  36  F: -1802.653228775550360  |grad|_K:  3.787e-07  alpha:  3.934e-01  linmin:  1.122e-07  t[s]:  16030.01
	FillingsUpdate:  mu: -0.197942900  nElectrons: 331.000000
	SubspaceRotationAdjust: set factor to 0.144
ElecMinimize: Iter:  37  F: -1802.653229742829808  |grad|_K:  3.896e-07  alpha:  1.586e-01  linmin:  1.969e-07  t[s]:  16384.61
	FillingsUpdate:  mu: -0.197863245  nElectrons: 331.000000
	SubspaceRotationAdjust: set factor to 0.214
ElecMinimize: Iter:  38  F: -1802.653231350923079  |grad|_K:  2.876e-07  alpha:  2.490e-01  linmin: -3.791e-07  t[s]:  16742.38
	FillingsUpdate:  mu: -0.197828017  nElectrons: 331.000000
	SubspaceRotationAdjust: set factor to 0.162
ElecMinimize: Iter:  39  F: -1802.653232507704161  |grad|_K:  3.721e-07  alpha:  3.280e-01  linmin: -5.302e-07  t[s]:  17099.69
	FillingsUpdate:  mu: -0.197836708  nElectrons: 331.000000
	SubspaceRotationAdjust: set factor to 0.152
ElecMinimize: Iter:  40  F: -1802.653233162457354  |grad|_K:  2.813e-07  alpha:  1.111e-01  linmin:  3.982e-07  t[s]:  17456.86
ElecMinimize: 	Predicted alpha/alphaT>3.000000, increasing alphaT to 3.333628e-01.
	FillingsUpdate:  mu: -0.197833129  nElectrons: 331.000000
	SubspaceRotationAdjust: set factor to 0.175
ElecMinimize: Iter:  41  F: -1802.653234307004368  |grad|_K:  2.596e-07  alpha:  3.402e-01  linmin: -6.256e-07  t[s]:  17894.78
	FillingsUpdate:  mu: -0.197831446  nElectrons: 331.000000
	SubspaceRotationAdjust: set factor to 0.159
ElecMinimize: Iter:  42  F: -1802.653234790837132  |grad|_K:  2.772e-07  alpha:  1.683e-01  linmin:  1.812e-07  t[s]:  18250.59
	FillingsUpdate:  mu: -0.197878132  nElectrons: 331.000000
	SubspaceRotationAdjust: set factor to 0.223
ElecMinimize: Iter:  43  F: -1802.653235536366765  |grad|_K:  1.973e-07  alpha:  2.282e-01  linmin:  2.580e-09  t[s]:  18608.48
	FillingsUpdate:  mu: -0.197937578  nElectrons: 331.000000
	SubspaceRotationAdjust: set factor to 0.166
ElecMinimize: Iter:  44  F: -1802.653236064910971  |grad|_K:  2.549e-07  alpha:  3.189e-01  linmin:  1.748e-07  t[s]:  18966.13
	FillingsUpdate:  mu: -0.197959825  nElectrons: 331.000000
	SubspaceRotationAdjust: set factor to 0.149
ElecMinimize: Iter:  45  F: -1802.653236336682539  |grad|_K:  1.766e-07  alpha:  9.842e-02  linmin: -1.571e-07  t[s]:  19326.22
ElecMinimize: 	Predicted alpha/alphaT>3.000000, increasing alphaT to 2.952716e-01.
	FillingsUpdate:  mu: -0.198006227  nElectrons: 331.000000
	SubspaceRotationAdjust: set factor to 0.155
ElecMinimize: Iter:  46  F: -1802.653236766510418  |grad|_K:  1.658e-07  alpha:  3.235e-01  linmin: -1.542e-07  t[s]:  19762.03
	FillingsUpdate:  mu: -0.198033535  nElectrons: 331.000000
	SubspaceRotationAdjust: set factor to 0.141
ElecMinimize: Iter:  47  F: -1802.653236936497933  |grad|_K:  1.519e-07  alpha:  1.452e-01  linmin: -5.844e-08  t[s]:  20119.57
	FillingsUpdate:  mu: -0.198066783  nElectrons: 331.000000
	SubspaceRotationAdjust: set factor to 0.195
ElecMinimize: Iter:  48  F: -1802.653237202421678  |grad|_K:  1.186e-07  alpha:  2.716e-01  linmin:  1.324e-06  t[s]:  20472.80
	FillingsUpdate:  mu: -0.198077378  nElectrons: 331.000000
	SubspaceRotationAdjust: set factor to 0.141
ElecMinimize: Iter:  49  F: -1802.653237337573501  |grad|_K:  1.545e-07  alpha:  2.269e-01  linmin:  7.931e-08  t[s]:  20830.56
	FillingsUpdate:  mu: -0.198094253  nElectrons: 331.000000
	SubspaceRotationAdjust: set factor to 0.188
ElecMinimize: Iter:  50  F: -1802.653237495539543  |grad|_K:  1.006e-07  alpha:  1.553e-01  linmin: -6.944e-08  t[s]:  21185.23
	FillingsUpdate:  mu: -0.198094230  nElectrons: 331.000000
	SubspaceRotationAdjust: set factor to 0.163
ElecMinimize: Iter:  51  F: -1802.653237660227205  |grad|_K:  1.196e-07  alpha:  3.826e-01  linmin:  4.066e-07  t[s]:  21541.63
	FillingsUpdate:  mu: -0.198085383  nElectrons: 331.000000
	SubspaceRotationAdjust: set factor to 0.152
ElecMinimize: Iter:  52  F: -1802.653237740560598  |grad|_K:  1.097e-07  alpha:  1.326e-01  linmin: -9.719e-08  t[s]:  21898.02
	FillingsUpdate:  mu: -0.198078085  nElectrons: 331.000000
	SubspaceRotationAdjust: set factor to 0.229
ElecMinimize: Iter:  53  F: -1802.653237892105153  |grad|_K:  9.409e-08  alpha:  2.998e-01  linmin:  1.699e-06  t[s]:  22253.77
	FillingsUpdate:  mu: -0.198079640  nElectrons: 331.000000
	SubspaceRotationAdjust: set factor to 0.177
ElecMinimize: Iter:  54  F: -1802.653237969431302  |grad|_K:  1.253e-07  alpha:  2.062e-01  linmin:  5.679e-07  t[s]:  22607.15
	FillingsUpdate:  mu: -0.198069812  nElectrons: 331.000000
	SubspaceRotationAdjust: set factor to 0.192
ElecMinimize: Iter:  55  F: -1802.653238066104905  |grad|_K:  8.091e-08  alpha:  1.452e-01  linmin: -2.042e-07  t[s]:  22963.34
	FillingsUpdate:  mu: -0.198050204  nElectrons: 331.000000
	SubspaceRotationAdjust: set factor to 0.248
ElecMinimize: Iter:  56  F: -1802.653238162870366  |grad|_K:  7.575e-08  alpha:  3.494e-01  linmin:  8.471e-07  t[s]:  23315.44
	FillingsUpdate:  mu: -0.198041137  nElectrons: 331.000000
	SubspaceRotationAdjust: set factor to 0.192
ElecMinimize: Iter:  57  F: -1802.653238206655033  |grad|_K:  9.322e-08  alpha:  1.810e-01  linmin: -4.219e-07  t[s]:  23676.52
	FillingsUpdate:  mu: -0.198024296  nElectrons: 331.000000
	SubspaceRotationAdjust: set factor to 0.193
ElecMinimize: Iter:  58  F: -1802.653238257070143  |grad|_K:  5.877e-08  alpha:  1.360e-01  linmin:  5.624e-07  t[s]:  24030.03
	FillingsUpdate:  mu: -0.198019039  nElectrons: 331.000000
	SubspaceRotationAdjust: set factor to 0.261
ElecMinimize: Iter:  59  F: -1802.653238304554179  |grad|_K:  4.982e-08  alpha:  3.337e-01  linmin:  4.779e-06  t[s]:  24387.28
	FillingsUpdate:  mu: -0.198017133  nElectrons: 331.000000
	SubspaceRotationAdjust: set factor to 0.278
ElecMinimize: Iter:  60  F: -1802.653238340501957  |grad|_K:  4.688e-08  alpha:  3.554e-01  linmin:  9.298e-07  t[s]:  24742.07
	FillingsUpdate:  mu: -0.198015885  nElectrons: 331.000000
	SubspaceRotationAdjust: set factor to 0.206
ElecMinimize: Iter:  61  F: -1802.653238365300240  |grad|_K:  6.027e-08  alpha:  2.699e-01  linmin:  1.390e-06  t[s]:  25103.18
	FillingsUpdate:  mu: -0.198013240  nElectrons: 331.000000
	SubspaceRotationAdjust: set factor to 0.178
ElecMinimize: Iter:  62  F: -1802.653238379139111  |grad|_K:  4.490e-08  alpha:  9.020e-02  linmin:  1.650e-07  t[s]:  25459.77
ElecMinimize: 	Predicted alpha/alphaT>3.000000, increasing alphaT to 2.706081e-01.
	FillingsUpdate:  mu: -0.198016181  nElectrons: 331.000000
	SubspaceRotationAdjust: set factor to 0.264
ElecMinimize: Iter:  63  F: -1802.653238404482181  |grad|_K:  3.783e-08  alpha:  2.895e-01  linmin: -1.311e-08  t[s]:  25903.63
	FillingsUpdate:  mu: -0.198021368  nElectrons: 331.000000
	SubspaceRotationAdjust: set factor to 0.199
ElecMinimize: Iter:  64  F: -1802.653238415455917  |grad|_K:  5.083e-08  alpha:  1.947e-01  linmin: -9.411e-07  t[s]:  26262.61
	FillingsUpdate:  mu: -0.198024936  nElectrons: 331.000000
	SubspaceRotationAdjust: set factor to 0.19
ElecMinimize: Iter:  65  F: -1802.653238429694284  |grad|_K:  3.318e-08  alpha:  1.254e-01  linmin:  8.622e-07  t[s]:  26621.81
	FillingsUpdate:  mu: -0.198028312  nElectrons: 331.000000
	SubspaceRotationAdjust: set factor to 0.253
ElecMinimize: Iter:  66  F: -1802.653238444502676  |grad|_K:  2.834e-08  alpha:  3.275e-01  linmin: -9.106e-07  t[s]:  26977.01
	FillingsUpdate:  mu: -0.198030404  nElectrons: 331.000000
	SubspaceRotationAdjust: set factor to 0.224
ElecMinimize: Iter:  67  F: -1802.653238456557119  |grad|_K:  3.235e-08  alpha:  3.494e-01  linmin:  3.723e-06  t[s]:  27335.76
	FillingsUpdate:  mu: -0.198031126  nElectrons: 331.000000
	SubspaceRotationAdjust: set factor to 0.2
ElecMinimize: Iter:  68  F: -1802.653238461357205  |grad|_K:  3.011e-08  alpha:  1.089e-01  linmin: -3.038e-08  t[s]:  27691.31
	FillingsUpdate:  mu: -0.198037348  nElectrons: 331.000000
	SubspaceRotationAdjust: set factor to 0.295
ElecMinimize: Iter:  69  F: -1802.653238469675443  |grad|_K:  2.187e-08  alpha:  2.250e-01  linmin:  1.042e-06  t[s]:  28045.64
ElecMinimize: Converged (|Delta F|<1.000000e-08 for 2 iters).
Setting wave functions to eigenvectors of Hamiltonian

# Ionic positions in lattice coordinates:
ion O   0.500000000000000   0.312050000000000   0.335250000000000 1
ion C   0.500000000000000   0.500000000000000   0.295860000000000 1
ion H   0.500000000000000   0.681010000000000   0.324860000000000 1
ion Pt   0.000000000000000   0.000000000000000  -0.166660000000000 0
ion Pt   0.000000000000000   0.500000000000000  -0.166660000000000 0
ion Pt   0.500000000000000   0.000000000000000  -0.166660000000000 0
ion Pt   0.500000000000000   0.500000000000000  -0.166660000000000 0
ion Pt   0.250000000000000   0.250000000000000  -0.083330000000000 0
ion Pt   0.250000000000000   0.750000000000000  -0.083330000000000 0
ion Pt   0.750000000000000   0.250000000000000  -0.083330000000000 0
ion Pt   0.750000000000000   0.750000000000000  -0.083330000000000 0
ion Pt   0.000000000000000   0.000000000000000   0.000000000000000 1
ion Pt   0.000000000000000   0.500000000000000   0.000000000000000 1
ion Pt   0.500000000000000   0.000000000000000   0.000000000000000 1
ion Pt   0.500000000000000   0.500000000000000   0.000000000000000 1
ion Pt   0.250000000000000   0.250000000000000   0.083330000000000 1
ion Pt   0.250000000000000   0.750000000000000   0.083330000000000 1
ion Pt   0.750000000000000   0.250000000000000   0.083330000000000 1
ion Pt   0.750000000000000   0.750000000000000   0.083330000000000 1
ion Pt   0.000000000000000   0.000000000000000   0.166660000000000 1
ion Pt   0.000000000000000   0.500000000000000   0.166660000000000 1
ion Pt   0.500000000000000   0.000000000000000   0.166660000000000 1
ion Pt   0.500000000000000   0.500000000000000   0.166660000000000 1


# Forces in Lattice coordinates:
force O   0.000000000000000   0.260241229926367  -0.522269179623422 1
force C   0.000000000000000  -0.394875306582190  -0.660688175305511 1
force H   0.000000000000000   0.099640995190018   0.053733885880465 1
force Pt   0.000000000000000  -0.000268882743042  -0.442788480674030 0
force Pt   0.000000000000000   0.000183302907748  -0.446863713730256 0
force Pt   0.000000000000000  -0.001313313937342  -0.439410178411885 0
force Pt   0.000000000000000   0.001161204349229  -0.530600320242143 0
force Pt   0.005164280943228   0.003749872874275  -0.870882942603126 0
force Pt   0.005571672548058  -0.003700359174604  -0.869535179798216 0
force Pt  -0.005164280943228   0.003749872874275  -0.870882942603126 0
force Pt  -0.005571672548058  -0.003700359174604  -0.869535179798216 0
force Pt   0.000000000000000  -0.000940039847954  -0.070617311640971 1
force Pt   0.000000000000000   0.001147875313957   0.004019239285003 1
force Pt   0.000000000000000   0.000133189816156   0.036580273100481 1
force Pt   0.000000000000000  -0.002955393271006   0.168627354055910 1
force Pt  -0.027555711588959  -0.012137598885954   0.831880187291656 1
force Pt  -0.026905395655467   0.012362122880339   0.836611273537460 1
force Pt   0.027555711588959  -0.012137598885954   0.831880187291656 1
force Pt   0.026905395655467   0.012362122880339   0.836611273537460 1
force Pt   0.000000000000000   0.000022598424600   0.406419322450236 1
force Pt   0.000000000000000   0.000743898943926   0.429006922956203 1
force Pt   0.000000000000000   0.008550696752966   0.354477466127061 1
force Pt   0.000000000000000   0.027263484594769   1.794626407180373 1

# Energy components:
   Eewald =   -12784.0391987584516755
       EH =   -11265.1868740021436679
     Eloc =    21929.8333514915138949
      Enl =      -17.5715222266099751
      Exc =     -572.5137744223720802
 Exc_core =      324.9288931879792699
       KE =      582.1208486071326433
-------------------------------------
     Etot =    -1802.4282761229533207
       TS =        0.2249623467222324
-------------------------------------
        F =    -1802.6532384696754434

IonicMinimize: Iter:   0  F: -1802.653238469675443  |grad|_K:  1.464e-02  t[s]:  28102.36

#--- Lowdin population analysis ---
# oxidation-state O -0.185
# oxidation-state C +0.250
# oxidation-state H +0.232
# oxidation-state Pt +0.070 +0.071 +0.070 +0.066 -0.045 -0.046 -0.045 -0.046 +0.016 +0.015 +0.016 -0.001 -0.045 -0.045 -0.045 -0.045 +0.062 +0.065 +0.053 -0.059


-------- Electronic minimization -----------
	FillingsUpdate:  mu: -0.105436349  nElectrons: 331.000000
ElecMinimize: Iter:   0  F: -1802.350590072634304  |grad|_K:  1.940e-04  alpha:  1.000e+00
	FillingsUpdate:  mu: -0.121047293  nElectrons: 331.000000
	SubspaceRotationAdjust: set factor to 0.182
ElecMinimize: Iter:   1  F: -1802.462721563443665  |grad|_K:  2.022e-04  alpha:  9.448e-02  linmin:  1.359e-02  t[s]:  28731.10
	FillingsUpdate:  mu: -0.231858282  nElectrons: 331.000000
	SubspaceRotationAdjust: set factor to 0.12
ElecMinimize: Iter:   2  F: -1802.601790998577826  |grad|_K:  7.047e-05  alpha:  1.055e-01  linmin: -5.143e-04  t[s]:  29084.93
	FillingsUpdate:  mu: -0.230642720  nElectrons: 331.000000
	SubspaceRotationAdjust: set factor to 0.102
ElecMinimize: Iter:   3  F: -1802.621853661387149  |grad|_K:  4.610e-05  alpha:  9.438e-02  linmin:  2.916e-04  t[s]:  29440.41
	FillingsUpdate:  mu: -0.197176227  nElectrons: 331.000000
	SubspaceRotationAdjust: set factor to 0.0793
ElecMinimize: Iter:   4  F: -1802.642008082405937  |grad|_K:  2.756e-05  alpha:  2.239e-01  linmin:  1.658e-05  t[s]:  29793.60
	FillingsUpdate:  mu: -0.198206791  nElectrons: 331.000000
	SubspaceRotationAdjust: set factor to 0.0673
ElecMinimize: Iter:   5  F: -1802.645814323156628  |grad|_K:  1.504e-05  alpha:  1.173e-01  linmin: -6.033e-05  t[s]:  30149.80
	FillingsUpdate:  mu: -0.200060951  nElectrons: 331.000000
	SubspaceRotationAdjust: set factor to 0.0518
ElecMinimize: Iter:   6  F: -1802.648586442821397  |grad|_K:  1.376e-05  alpha:  2.874e-01  linmin: -1.645e-05  t[s]:  30508.54
	FillingsUpdate:  mu: -0.204106484  nElectrons: 331.000000
	SubspaceRotationAdjust: set factor to 0.066
ElecMinimize: Iter:   7  F: -1802.650173041862672  |grad|_K:  9.407e-06  alpha:  1.966e-01  linmin:  1.592e-06  t[s]:  30863.42
	FillingsUpdate:  mu: -0.200629301  nElectrons: 331.000000
	SubspaceRotationAdjust: set factor to 0.0567
ElecMinimize: Iter:   8  F: -1802.651446620951674  |grad|_K:  1.069e-05  alpha:  3.384e-01  linmin:  4.910e-05  t[s]:  31220.32
	FillingsUpdate:  mu: -0.197987512  nElectrons: 331.000000
	SubspaceRotationAdjust: set factor to 0.0751
ElecMinimize: Iter:   9  F: -1802.652681231534871  |grad|_K:  8.754e-06  alpha:  2.545e-01  linmin: -4.598e-06  t[s]:  31578.80
	FillingsUpdate:  mu: -0.194776975  nElectrons: 331.000000
	SubspaceRotationAdjust: set factor to 0.0775
ElecMinimize: Iter:  10  F: -1802.653757885754658  |grad|_K:  1.024e-05  alpha:  3.296e-01  linmin: -2.935e-05  t[s]:  31933.60
	FillingsUpdate:  mu: -0.193526135  nElectrons: 331.000000
	SubspaceRotationAdjust: set factor to 0.0897
ElecMinimize: Iter:  11  F: -1802.655030345195200  |grad|_K:  9.487e-06  alpha:  2.840e-01  linmin:  1.217e-05  t[s]:  32288.59
	FillingsUpdate:  mu: -0.191477419  nElectrons: 331.000000
	SubspaceRotationAdjust: set factor to 0.0742
ElecMinimize: Iter:  12  F: -1802.656420524264149  |grad|_K:  1.254e-05  alpha:  3.642e-01  linmin:  6.082e-05  t[s]:  32644.63
	FillingsUpdate:  mu: -0.193333490  nElectrons: 331.000000
	SubspaceRotationAdjust: set factor to 0.0965
ElecMinimize: Iter:  13  F: -1802.657907594233393  |grad|_K:  9.037e-06  alpha:  2.254e-01  linmin:  6.799e-06  t[s]:  33000.42
	FillingsUpdate:  mu: -0.192984476  nElectrons: 331.000000
	SubspaceRotationAdjust: set factor to 0.0844
ElecMinimize: Iter:  14  F: -1802.658961424080417  |grad|_K:  1.032e-05  alpha:  3.027e-01  linmin: -5.315e-05  t[s]:  33356.31
	FillingsUpdate:  mu: -0.194181594  nElectrons: 331.000000
	SubspaceRotationAdjust: set factor to 0.106
ElecMinimize: Iter:  15  F: -1802.659892314313993  |grad|_K:  6.014e-06  alpha:  2.031e-01  linmin:  4.467e-07  t[s]:  33711.40
	FillingsUpdate:  mu: -0.194901463  nElectrons: 331.000000
	SubspaceRotationAdjust: set factor to 0.0884
ElecMinimize: Iter:  16  F: -1802.660329698505620  |grad|_K:  6.222e-06  alpha:  2.843e-01  linmin:  2.685e-05  t[s]:  34063.47
	FillingsUpdate:  mu: -0.196434057  nElectrons: 331.000000
	SubspaceRotationAdjust: set factor to 0.0932
ElecMinimize: Iter:  17  F: -1802.660607922386589  |grad|_K:  3.355e-06  alpha:  1.695e-01  linmin:  5.167e-06  t[s]:  34424.20
	FillingsUpdate:  mu: -0.196615938  nElectrons: 331.000000
	SubspaceRotationAdjust: set factor to 0.0828
ElecMinimize: Iter:  18  F: -1802.660743929234059  |grad|_K:  3.050e-06  alpha:  2.838e-01  linmin: -1.377e-05  t[s]:  34780.77
	FillingsUpdate:  mu: -0.196617027  nElectrons: 331.000000
	SubspaceRotationAdjust: set factor to 0.0787
ElecMinimize: Iter:  19  F: -1802.660814535996906  |grad|_K:  1.870e-06  alpha:  1.781e-01  linmin: -7.115e-07  t[s]:  35136.73
	FillingsUpdate:  mu: -0.196767588  nElectrons: 331.000000
	SubspaceRotationAdjust: set factor to 0.086
ElecMinimize: Iter:  20  F: -1802.660858133672946  |grad|_K:  1.548e-06  alpha:  2.927e-01  linmin:  3.177e-06  t[s]:  35493.22
	FillingsUpdate:  mu: -0.197046124  nElectrons: 331.000000
	SubspaceRotationAdjust: set factor to 0.0775
ElecMinimize: Iter:  21  F: -1802.660877891374184  |grad|_K:  1.024e-06  alpha:  1.937e-01  linmin:  1.795e-07  t[s]:  35849.80
	FillingsUpdate:  mu: -0.197256295  nElectrons: 331.000000
	SubspaceRotationAdjust: set factor to 0.0929
ElecMinimize: Iter:  22  F: -1802.660891043101628  |grad|_K:  7.980e-07  alpha:  2.946e-01  linmin: -1.340e-06  t[s]:  36203.22
	FillingsUpdate:  mu: -0.197302368  nElectrons: 331.000000
	SubspaceRotationAdjust: set factor to 0.0821
ElecMinimize: Iter:  23  F: -1802.660896998655517  |grad|_K:  6.477e-07  alpha:  2.196e-01  linmin:  1.160e-07  t[s]:  36557.21
	FillingsUpdate:  mu: -0.197356130  nElectrons: 331.000000
	SubspaceRotationAdjust: set factor to 0.121
ElecMinimize: Iter:  24  F: -1802.660903108436514  |grad|_K:  5.111e-07  alpha:  3.421e-01  linmin: -1.469e-08  t[s]:  36910.71
	FillingsUpdate:  mu: -0.197390223  nElectrons: 331.000000
	SubspaceRotationAdjust: set factor to 0.105
ElecMinimize: Iter:  25  F: -1802.660906283784470  |grad|_K:  5.591e-07  alpha:  2.856e-01  linmin: -7.261e-07  t[s]:  37267.53
	FillingsUpdate:  mu: -0.197344408  nElectrons: 331.000000
	SubspaceRotationAdjust: set factor to 0.111
ElecMinimize: Iter:  26  F: -1802.660909672701564  |grad|_K:  3.951e-07  alpha:  2.546e-01  linmin:  4.566e-07  t[s]:  37621.87
	FillingsUpdate:  mu: -0.197304051  nElectrons: 331.000000
	SubspaceRotationAdjust: set factor to 0.135
ElecMinimize: Iter:  27  F: -1802.660912774616918  |grad|_K:  3.713e-07  alpha:  4.666e-01  linmin: -2.862e-07  t[s]:  37977.36
	FillingsUpdate:  mu: -0.197333697  nElectrons: 331.000000
	SubspaceRotationAdjust: set factor to 0.117
ElecMinimize: Iter:  28  F: -1802.660914369747616  |grad|_K:  3.989e-07  alpha:  2.717e-01  linmin: -4.470e-07  t[s]:  38333.29
	FillingsUpdate:  mu: -0.197339199  nElectrons: 331.000000
	SubspaceRotationAdjust: set factor to 0.107
ElecMinimize: Iter:  29  F: -1802.660915905984666  |grad|_K:  2.769e-07  alpha:  2.267e-01  linmin:  1.692e-06  t[s]:  38694.54
	FillingsUpdate:  mu: -0.197333365  nElectrons: 331.000000
	SubspaceRotationAdjust: set factor to 0.129
ElecMinimize: Iter:  30  F: -1802.660917353653758  |grad|_K:  2.287e-07  alpha:  4.427e-01  linmin: -9.113e-06  t[s]:  39048.52
	FillingsUpdate:  mu: -0.197322834  nElectrons: 331.000000
	SubspaceRotationAdjust: set factor to 0.139
ElecMinimize: Iter:  31  F: -1802.660918281277191  |grad|_K:  2.029e-07  alpha:  4.158e-01  linmin:  7.037e-08  t[s]:  39403.92
	FillingsUpdate:  mu: -0.197333252  nElectrons: 331.000000
	SubspaceRotationAdjust: set factor to 0.112
ElecMinimize: Iter:  32  F: -1802.660918702183608  |grad|_K:  2.041e-07  alpha:  2.401e-01  linmin: -1.061e-06  t[s]:  39760.63
	FillingsUpdate:  mu: -0.197379389  nElectrons: 331.000000
	SubspaceRotationAdjust: set factor to 0.0925
ElecMinimize: Iter:  33  F: -1802.660919080913800  |grad|_K:  1.205e-07  alpha:  2.135e-01  linmin: -2.099e-08  t[s]:  40120.00
	FillingsUpdate:  mu: -0.197398499  nElectrons: 331.000000
	SubspaceRotationAdjust: set factor to 0.106
ElecMinimize: Iter:  34  F: -1802.660919316471336  |grad|_K:  8.309e-08  alpha:  3.815e-01  linmin:  6.026e-06  t[s]:  40468.78
	FillingsUpdate:  mu: -0.197399165  nElectrons: 331.000000
	SubspaceRotationAdjust: set factor to 0.111
ElecMinimize: Iter:  35  F: -1802.660919420740811  |grad|_K:  5.749e-08  alpha:  3.549e-01  linmin:  9.002e-06  t[s]:  40825.25
	FillingsUpdate:  mu: -0.197408811  nElectrons: 331.000000
	SubspaceRotationAdjust: set factor to 0.0972
ElecMinimize: Iter:  36  F: -1802.660919461688763  |grad|_K:  5.052e-08  alpha:  2.948e-01  linmin: -1.209e-05  t[s]:  41182.12
	FillingsUpdate:  mu: -0.197414010  nElectrons: 331.000000
	SubspaceRotationAdjust: set factor to 0.0791
ElecMinimize: Iter:  37  F: -1802.660919485943850  |grad|_K:  3.355e-08  alpha:  2.214e-01  linmin:  4.719e-05  t[s]:  41534.38
	FillingsUpdate:  mu: -0.197418950  nElectrons: 331.000000
	SubspaceRotationAdjust: set factor to 0.0971
ElecMinimize: Iter:  38  F: -1802.660919503635114  |grad|_K:  2.407e-08  alpha:  3.720e-01  linmin: -4.347e-05  t[s]:  41892.84
	FillingsUpdate:  mu: -0.197418089  nElectrons: 331.000000
	SubspaceRotationAdjust: set factor to 0.118
ElecMinimize: Iter:  39  F: -1802.660919514463785  |grad|_K:  2.102e-08  alpha:  4.291e-01  linmin:  1.274e-05  t[s]:  42250.73
	FillingsUpdate:  mu: -0.197416776  nElectrons: 331.000000
	SubspaceRotationAdjust: set factor to 0.107
ElecMinimize: Iter:  40  F: -1802.660919521762708  |grad|_K:  2.351e-08  alpha:  3.795e-01  linmin:  1.267e-06  t[s]:  42608.12
	FillingsUpdate:  mu: -0.197417973  nElectrons: 331.000000
	SubspaceRotationAdjust: set factor to 0.0954
ElecMinimize: Iter:  41  F: -1802.660919527642591  |grad|_K:  2.034e-08  alpha:  2.488e-01  linmin: -1.149e-05  t[s]:  42963.68
ElecMinimize: Converged (|Delta F|<1.000000e-08 for 2 iters).
Setting wave functions to eigenvectors of Hamiltonian

# Ionic positions in lattice coordinates:
ion O   0.500000000000000   0.314462939081367   0.334711950675201 1
ion C   0.500000000000000   0.496338742866423   0.295179349407365 1
ion H   0.500000000000000   0.681933864567764   0.324915357432804 1
ion Pt   0.000000000000000   0.000000000000000  -0.166660000000000 0
ion Pt   0.000000000000000   0.500000000000000  -0.166660000000000 0
ion Pt   0.500000000000000   0.000000000000000  -0.166660000000000 0
ion Pt   0.500000000000000   0.500000000000000  -0.166660000000000 0
ion Pt   0.250000000000000   0.250000000000000  -0.083330000000000 0
ion Pt   0.250000000000000   0.750000000000000  -0.083330000000000 0
ion Pt   0.750000000000000   0.250000000000000  -0.083330000000000 0
ion Pt   0.750000000000000   0.750000000000000  -0.083330000000000 0
ion Pt   0.000000000000000  -0.000008715985887  -0.000072750984224 1
ion Pt   0.000000000000000   0.500010643022270   0.000004140678922 1
ion Pt   0.500000000000000   0.000001234926967   0.000037685530777 1
ion Pt   0.500000000000000   0.499972597793492   0.000173722359144 1
ion Pt   0.249852219816747   0.249887461004107   0.084187015099777 1
ion Pt   0.249855707435185   0.750114620767182   0.084191889133818 1
ion Pt   0.750147780183253   0.249887461004107   0.084187015099777 1
ion Pt   0.750144292564815   0.750114620767182   0.084191889133818 1
ion Pt   0.000000000000000   0.000000209531064   0.167078699112567 1
ion Pt   0.000000000000000   0.500006897380691   0.167101969187990 1
ion Pt   0.500000000000000   0.000079281481931   0.167025187854745 1
ion Pt   0.500000000000000   0.500252785185082   0.168508850294680 1


# Forces in Lattice coordinates:
force O   0.000000000000000  -0.118313725530284   0.146897294632410 1
force C   0.000000000000000   0.112626647851219  -0.898091824685431 1
force H   0.000000000000000  -0.020864631231092  -0.178722402564642 1
force Pt   0.000000000000000  -0.000195882986884  -0.442799218965954 0
force Pt   0.000000000000000   0.000124574698738  -0.442337845507835 0
force Pt   0.000000000000000  -0.001149060406186  -0.432520707768266 0
force Pt   0.000000000000000   0.000930456852609  -0.521203321191182 0
force Pt   0.008193874012575   0.005107526848534  -0.827230270537129 0
force Pt   0.008694650063305  -0.005136972331727  -0.825870439043615 0
force Pt  -0.008193874012575   0.005107526848534  -0.827230270537129 0
force Pt  -0.008694650063305  -0.005136972331727  -0.825870439043615 0
force Pt   0.000000000000000  -0.000365521091248  -0.012614590632932 1
force Pt   0.000000000000000   0.000599941044878   0.065793672485712 1
force Pt   0.000000000000000  -0.000377643112704   0.096588466724011 1
force Pt   0.000000000000000  -0.001168154877329   0.252214572884908 1
force Pt  -0.011832611178206  -0.001601593046438   0.744064074487564 1
force Pt  -0.012020517441643   0.003469125324600   0.745644591574077 1
force Pt   0.011832611178206  -0.001601593046438   0.744064074487564 1
force Pt   0.012020517441643   0.003469125324600   0.745644591574077 1
force Pt   0.000000000000000  -0.000024008176707   0.420794131652744 1
force Pt   0.000000000000000   0.000672034852253   0.434166626930934 1
force Pt   0.000000000000000   0.007447316982467   0.355776085029678 1
force Pt   0.000000000000000   0.016148613180981   1.494045537459332 1

# Energy components:
   Eewald =   -12805.9343274537277466
       EH =   -11286.8245887140074046
     Eloc =    21973.3466612964293745
      Enl =      -17.5640246034598562
      Exc =     -572.5099589334078019
 Exc_core =      324.9288947327324308
       KE =      582.1213856480413824
-------------------------------------
     Etot =    -1802.4359580273999200
       TS =        0.2249615002426870
-------------------------------------
        F =    -1802.6609195276425908

IonicMinimize: Iter:   1  F: -1802.660919527642591  |grad|_K:  1.185e-02  alpha:  1.000e+00  linmin: -5.790e-01  t[s]:  43020.89

#--- Lowdin population analysis ---
# oxidation-state O -0.174
# oxidation-state C +0.264
# oxidation-state H +0.222
# oxidation-state Pt +0.070 +0.071 +0.070 +0.066 -0.046 -0.046 -0.046 -0.046 +0.016 +0.014 +0.015 -0.003 -0.046 -0.047 -0.046 -0.047 +0.062 +0.064 +0.050 -0.059


-------- Electronic minimization -----------
	FillingsUpdate:  mu: -0.031223721  nElectrons: 331.000000
ElecMinimize: Iter:   0  F: -1801.717794109028091  |grad|_K:  2.843e-04  alpha:  1.000e+00
	FillingsUpdate:  mu: -0.101747137  nElectrons: 331.000000
	SubspaceRotationAdjust: set factor to 0.0584
ElecMinimize: Iter:   1  F: -1802.383600123166389  |grad|_K:  1.720e-04  alpha:  2.121e-01  linmin:  1.556e-02  t[s]:  43646.32
	FillingsUpdate:  mu: -0.226087743  nElectrons: 331.000000
	SubspaceRotationAdjust: set factor to 0.0831
ElecMinimize: Iter:   2  F: -1802.580791077319645  |grad|_K:  4.532e-05  alpha:  1.702e-01  linmin: -3.098e-04  t[s]:  44001.71
	FillingsUpdate:  mu: -0.206542753  nElectrons: 331.000000
	SubspaceRotationAdjust: set factor to 0.0796
ElecMinimize: Iter:   3  F: -1802.611393576978344  |grad|_K:  2.524e-05  alpha:  3.496e-01  linmin:  1.858e-04  t[s]:  44355.56
	FillingsUpdate:  mu: -0.202556052  nElectrons: 331.000000
	SubspaceRotationAdjust: set factor to 0.0627
ElecMinimize: Iter:   4  F: -1802.617538396785221  |grad|_K:  1.890e-05  alpha:  2.268e-01  linmin: -1.479e-06  t[s]:  44706.69
	FillingsUpdate:  mu: -0.199131929  nElectrons: 331.000000
	SubspaceRotationAdjust: set factor to 0.0832
ElecMinimize: Iter:   5  F: -1802.625128630349764  |grad|_K:  1.747e-05  alpha:  5.005e-01  linmin:  9.064e-05  t[s]:  45059.47
	FillingsUpdate:  mu: -0.191382137  nElectrons: 331.000000
	SubspaceRotationAdjust: set factor to 0.0677
ElecMinimize: Iter:   6  F: -1802.635238357566550  |grad|_K:  2.323e-05  alpha:  7.877e-01  linmin:  1.840e-04  t[s]:  45415.11
	FillingsUpdate:  mu: -0.193011262  nElectrons: 331.000000
	SubspaceRotationAdjust: set factor to 0.054
ElecMinimize: Iter:   7  F: -1802.641933267712375  |grad|_K:  2.182e-05  alpha:  3.067e-01  linmin:  1.926e-04  t[s]:  45768.65
	FillingsUpdate:  mu: -0.191028056  nElectrons: 331.000000
	SubspaceRotationAdjust: set factor to 0.0585
ElecMinimize: Iter:   8  F: -1802.652824907422655  |grad|_K:  2.013e-05  alpha:  5.552e-01  linmin:  1.218e-04  t[s]:  46121.38
	FillingsUpdate:  mu: -0.187669489  nElectrons: 331.000000
	SubspaceRotationAdjust: set factor to 0.0587
ElecMinimize: Iter:   9  F: -1802.661253118058994  |grad|_K:  1.974e-05  alpha:  4.960e-01  linmin:  1.014e-04  t[s]:  46479.12
	FillingsUpdate:  mu: -0.195413611  nElectrons: 331.000000
	SubspaceRotationAdjust: set factor to 0.0507
ElecMinimize: Iter:  10  F: -1802.666178673090144  |grad|_K:  1.223e-05  alpha:  3.039e-01  linmin:  2.054e-05  t[s]:  46835.86
	FillingsUpdate:  mu: -0.196577707  nElectrons: 331.000000
	SubspaceRotationAdjust: set factor to 0.0582
ElecMinimize: Iter:  11  F: -1802.668440585087410  |grad|_K:  7.815e-06  alpha:  3.557e-01  linmin:  3.435e-06  t[s]:  47190.37
	FillingsUpdate:  mu: -0.195860046  nElectrons: 331.000000
	SubspaceRotationAdjust: set factor to 0.0536
ElecMinimize: Iter:  12  F: -1802.669374470038292  |grad|_K:  5.813e-06  alpha:  3.592e-01  linmin:  1.606e-05  t[s]:  47543.71
	FillingsUpdate:  mu: -0.196581961  nElectrons: 331.000000
	SubspaceRotationAdjust: set factor to 0.0564
ElecMinimize: Iter:  13  F: -1802.669841880424428  |grad|_K:  3.617e-06  alpha:  3.251e-01  linmin: -1.651e-05  t[s]:  47895.76
	FillingsUpdate:  mu: -0.197722941  nElectrons: 331.000000
	SubspaceRotationAdjust: set factor to 0.0718
ElecMinimize: Iter:  14  F: -1802.670064107787994  |grad|_K:  2.758e-06  alpha:  3.988e-01  linmin:  7.015e-07  t[s]:  48251.39
	FillingsUpdate:  mu: -0.198510409  nElectrons: 331.000000
	SubspaceRotationAdjust: set factor to 0.0767
ElecMinimize: Iter:  15  F: -1802.670189326926447  |grad|_K:  2.335e-06  alpha:  3.866e-01  linmin:  1.111e-06  t[s]:  48608.11
	FillingsUpdate:  mu: -0.199102056  nElectrons: 331.000000
	SubspaceRotationAdjust: set factor to 0.0732
ElecMinimize: Iter:  16  F: -1802.670278704697921  |grad|_K:  2.080e-06  alpha:  3.851e-01  linmin: -1.243e-05  t[s]:  48963.55
	FillingsUpdate:  mu: -0.199232655  nElectrons: 331.000000
	SubspaceRotationAdjust: set factor to 0.0852
ElecMinimize: Iter:  17  F: -1802.670344794092671  |grad|_K:  1.538e-06  alpha:  3.584e-01  linmin:  4.117e-07  t[s]:  49318.77
	FillingsUpdate:  mu: -0.199358350  nElectrons: 331.000000
	SubspaceRotationAdjust: set factor to 0.104
ElecMinimize: Iter:  18  F: -1802.670401679537235  |grad|_K:  1.430e-06  alpha:  5.648e-01  linmin:  1.298e-06  t[s]:  49673.04
	FillingsUpdate:  mu: -0.199297720  nElectrons: 331.000000
	SubspaceRotationAdjust: set factor to 0.1
ElecMinimize: Iter:  19  F: -1802.670440691690828  |grad|_K:  1.634e-06  alpha:  4.481e-01  linmin: -3.091e-06  t[s]:  50025.52
	FillingsUpdate:  mu: -0.198989951  nElectrons: 331.000000
	SubspaceRotationAdjust: set factor to 0.0792
ElecMinimize: Iter:  20  F: -1802.670469735794313  |grad|_K:  1.285e-06  alpha:  2.552e-01  linmin: -1.916e-06  t[s]:  50378.25
	FillingsUpdate:  mu: -0.198794623  nElectrons: 331.000000
	SubspaceRotationAdjust: set factor to 0.0851
ElecMinimize: Iter:  21  F: -1802.670496448055019  |grad|_K:  1.043e-06  alpha:  3.796e-01  linmin: -3.389e-06  t[s]:  50731.96
	FillingsUpdate:  mu: -0.198746944  nElectrons: 331.000000
	SubspaceRotationAdjust: set factor to 0.0958
ElecMinimize: Iter:  22  F: -1802.670516437160359  |grad|_K:  7.599e-07  alpha:  4.316e-01  linmin: -9.142e-07  t[s]:  51089.10
	FillingsUpdate:  mu: -0.198670133  nElectrons: 331.000000
	SubspaceRotationAdjust: set factor to 0.0934
ElecMinimize: Iter:  23  F: -1802.670526460519341  |grad|_K:  6.839e-07  alpha:  4.076e-01  linmin:  1.709e-06  t[s]:  51446.12
	FillingsUpdate:  mu: -0.198672482  nElectrons: 331.000000
	SubspaceRotationAdjust: set factor to 0.0759
ElecMinimize: Iter:  24  F: -1802.670531040043215  |grad|_K:  4.886e-07  alpha:  2.300e-01  linmin: -1.080e-07  t[s]:  51801.42
	FillingsUpdate:  mu: -0.198651034  nElectrons: 331.000000
	SubspaceRotationAdjust: set factor to 0.089
ElecMinimize: Iter:  25  F: -1802.670535033755186  |grad|_K:  3.687e-07  alpha:  3.926e-01  linmin: -3.638e-06  t[s]:  52155.95
	FillingsUpdate:  mu: -0.198713141  nElectrons: 331.000000
	SubspaceRotationAdjust: set factor to 0.111
ElecMinimize: Iter:  26  F: -1802.670537529523926  |grad|_K:  3.080e-07  alpha:  4.309e-01  linmin: -3.626e-06  t[s]:  52511.60
	FillingsUpdate:  mu: -0.198830187  nElectrons: 331.000000
	SubspaceRotationAdjust: set factor to 0.101
ElecMinimize: Iter:  27  F: -1802.670539193246896  |grad|_K:  3.084e-07  alpha:  4.120e-01  linmin:  4.272e-06  t[s]:  52867.41
	FillingsUpdate:  mu: -0.198884974  nElectrons: 331.000000
	SubspaceRotationAdjust: set factor to 0.0832
ElecMinimize: Iter:  28  F: -1802.670540162357156  |grad|_K:  2.702e-07  alpha:  2.393e-01  linmin: -1.458e-06  t[s]:  53217.30
	FillingsUpdate:  mu: -0.198970389  nElectrons: 331.000000
	SubspaceRotationAdjust: set factor to 0.0946
ElecMinimize: Iter:  29  F: -1802.670541481590135  |grad|_K:  2.133e-07  alpha:  4.244e-01  linmin: -8.357e-07  t[s]:  53570.08
	FillingsUpdate:  mu: -0.199004258  nElectrons: 331.000000
	SubspaceRotationAdjust: set factor to 0.107
ElecMinimize: Iter:  30  F: -1802.670542296012172  |grad|_K:  1.773e-07  alpha:  4.204e-01  linmin:  1.744e-06  t[s]:  53924.02
	FillingsUpdate:  mu: -0.199007203  nElectrons: 331.000000
	SubspaceRotationAdjust: set factor to 0.0916
ElecMinimize: Iter:  31  F: -1802.670542696430857  |grad|_K:  1.671e-07  alpha:  2.992e-01  linmin: -1.479e-06  t[s]:  54278.34
	FillingsUpdate:  mu: -0.199015791  nElectrons: 331.000000
	SubspaceRotationAdjust: set factor to 0.0806
ElecMinimize: Iter:  32  F: -1802.670543007085598  |grad|_K:  1.180e-07  alpha:  2.615e-01  linmin:  5.907e-06  t[s]:  54634.01
	FillingsUpdate:  mu: -0.198997779  nElectrons: 331.000000
	SubspaceRotationAdjust: set factor to 0.0992
ElecMinimize: Iter:  33  F: -1802.670543236759386  |grad|_K:  8.108e-08  alpha:  3.870e-01  linmin: -2.417e-05  t[s]:  54986.22
	FillingsUpdate:  mu: -0.198976009  nElectrons: 331.000000
	SubspaceRotationAdjust: set factor to 0.106
ElecMinimize: Iter:  34  F: -1802.670543345180477  |grad|_K:  6.436e-08  alpha:  3.848e-01  linmin:  2.019e-05  t[s]:  55341.37
	FillingsUpdate:  mu: -0.198966080  nElectrons: 331.000000
	SubspaceRotationAdjust: set factor to 0.0888
ElecMinimize: Iter:  35  F: -1802.670543391518777  |grad|_K:  5.668e-08  alpha:  2.659e-01  linmin: -1.265e-05  t[s]:  55692.26
	FillingsUpdate:  mu: -0.198950127  nElectrons: 331.000000
	SubspaceRotationAdjust: set factor to 0.0831
ElecMinimize: Iter:  36  F: -1802.670543429099098  |grad|_K:  3.707e-08  alpha:  2.733e-01  linmin: -3.670e-05  t[s]:  56048.42
	FillingsUpdate:  mu: -0.198939531  nElectrons: 331.000000
	SubspaceRotationAdjust: set factor to 0.108
ElecMinimize: Iter:  37  F: -1802.670543453494929  |grad|_K:  2.739e-08  alpha:  4.109e-01  linmin: -4.348e-05  t[s]:  56398.76
	FillingsUpdate:  mu: -0.198932520  nElectrons: 331.000000
	SubspaceRotationAdjust: set factor to 0.12
ElecMinimize: Iter:  38  F: -1802.670543467198286  |grad|_K:  2.697e-08  alpha:  4.393e-01  linmin:  1.067e-04  t[s]:  56751.03
	FillingsUpdate:  mu: -0.198927115  nElectrons: 331.000000
	SubspaceRotationAdjust: set factor to 0.11
ElecMinimize: Iter:  39  F: -1802.670543476976491  |grad|_K:  2.944e-08  alpha:  3.150e-01  linmin:  1.187e-05  t[s]:  57098.12
	FillingsUpdate:  mu: -0.198926799  nElectrons: 331.000000
	SubspaceRotationAdjust: set factor to 0.11
ElecMinimize: Iter:  40  F: -1802.670543486261749  |grad|_K:  2.146e-08  alpha:  2.573e-01  linmin: -1.181e-04  t[s]:  57451.01
ElecMinimize: Converged (|Delta F|<1.000000e-08 for 2 iters).
Setting wave functions to eigenvectors of Hamiltonian

# Ionic positions in lattice coordinates:
ion O   0.500000000000000   0.315433222395910   0.334399018711521 1
ion C   0.500000000000000   0.494224324571536   0.293627360263332 1
ion H   0.500000000000000   0.682539931544967   0.324773047119460 1
ion Pt   0.000000000000000   0.000000000000000  -0.166660000000000 0
ion Pt   0.000000000000000   0.500000000000000  -0.166660000000000 0
ion Pt   0.500000000000000   0.000000000000000  -0.166660000000000 0
ion Pt   0.500000000000000   0.500000000000000  -0.166660000000000 0
ion Pt   0.250000000000000   0.250000000000000  -0.083330000000000 0
ion Pt   0.250000000000000   0.750000000000000  -0.083330000000000 0
ion Pt   0.750000000000000   0.250000000000000  -0.083330000000000 0
ion Pt   0.750000000000000   0.750000000000000  -0.083330000000000 0
ion Pt   0.000000000000000  -0.000019832178036  -0.000149703450370 1
ion Pt   0.000000000000000   0.500025691455108   0.000077930747428 1
ion Pt   0.500000000000000  -0.000001312393418   0.000173599786500 1
ion Pt   0.500000000000000   0.499937467256951   0.000594362686596 1
ion Pt   0.249657536553754   0.249773861615375   0.085728649389424 1
ion Pt   0.249663024860653   0.750247964466883   0.085739463311584 1
ion Pt   0.750342463446246   0.249773861615375   0.085728649389424 1
ion Pt   0.750336975139346   0.750247964466883   0.085739463311584 1
ion Pt   0.000000000000000   0.000000161945637   0.167892965409374 1
ion Pt   0.000000000000000   0.500019368649936   0.167950809002852 1
ion Pt   0.500000000000000   0.000219969309582   0.167723400333368 1
ion Pt   0.500000000000000   0.500628436291548   0.171716102470633 1


# Forces in Lattice coordinates:
force O   0.000000000000000  -0.214409504303681   0.282496729867603 1
force C   0.000000000000000   0.292220323106008  -0.459019297327208 1
force H   0.000000000000000  -0.102526875102110  -0.356161553166457 1
force Pt   0.000000000000000  -0.000144239268415  -0.443869864359814 0
force Pt   0.000000000000000   0.000079092338728  -0.434808457525411 0
force Pt   0.000000000000000  -0.001044037688770  -0.419925781849567 0
force Pt   0.000000000000000   0.000756336965521  -0.500012897393810 0
force Pt   0.013715439902662   0.007737110683775  -0.754601933267934 0
force Pt   0.014411768841462  -0.007870431981388  -0.752905003044792 0
force Pt  -0.013715439902662   0.007737110683775  -0.754601933267934 0
force Pt  -0.014411768841462  -0.007870431981388  -0.752905003044792 0
force Pt   0.000000000000000   0.000316670094933   0.084527826097121 1
force Pt   0.000000000000000  -0.000032438145379   0.163005829649534 1
force Pt   0.000000000000000  -0.000882270544357   0.190203349257535 1
force Pt   0.000000000000000   0.000469266280642   0.359954064543513 1
force Pt   0.008690725495912   0.012612113892622   0.598150002100212 1
force Pt   0.007603363447316  -0.008713458491103   0.596172329624143 1
force Pt  -0.008690725495912   0.012612113892622   0.598150002100212 1
force Pt  -0.007603363447316  -0.008713458491103   0.596172329624143 1
force Pt   0.000000000000000   0.000201845298271   0.436875419181573 1
force Pt   0.000000000000000   0.000609012880677   0.439046538260340 1
force Pt   0.000000000000000   0.009502657018066   0.372342319441342 1
force Pt   0.000000000000000   0.008162130935438   0.937442443833398 1

# Energy components:
   Eewald =   -12846.9031341377340141
       EH =   -11328.0966995219532691
     Eloc =    22055.6176322777428140
      Enl =      -17.5715080273427660
      Exc =     -572.4804746608368760
 Exc_core =      324.9288985963713685
       KE =      582.0597916653941866
-------------------------------------
     Etot =    -1802.4454938083586057
       TS =        0.2250496779032565
-------------------------------------
        F =    -1802.6705434862617494

IonicMinimize: Iter:   2  F: -1802.670543486261749  |grad|_K:  1.040e-02  alpha:  4.920e-01  linmin: -5.455e-01  t[s]:  57509.46

#--- Lowdin population analysis ---
# oxidation-state O -0.177
# oxidation-state C +0.265
# oxidation-state H +0.217
# oxidation-state Pt +0.071 +0.071 +0.071 +0.067 -0.045 -0.045 -0.045 -0.045 +0.016 +0.013 +0.013 -0.007 -0.048 -0.049 -0.048 -0.049 +0.066 +0.067 +0.050 -0.048


-------- Electronic minimization -----------
	FillingsUpdate:  mu: +0.029915707  nElectrons: 331.000000
ElecMinimize: Iter:   0  F: -1801.250964253178836  |grad|_K:  3.716e-04  alpha:  1.000e+00
	FillingsUpdate:  mu: -0.066456998  nElectrons: 331.000000
	SubspaceRotationAdjust: set factor to 0.0652
ElecMinimize: Iter:   1  F: -1802.167584699666122  |grad|_K:  2.497e-04  alpha:  1.864e-01  linmin:  2.371e-02  t[s]:  58131.24
	FillingsUpdate:  mu: -0.231732015  nElectrons: 331.000000
	SubspaceRotationAdjust: set factor to 0.142
ElecMinimize: Iter:   2  F: -1802.541728224953431  |grad|_K:  6.166e-05  alpha:  1.652e-01  linmin: -6.603e-04  t[s]:  58489.56
	FillingsUpdate:  mu: -0.206482712  nElectrons: 331.000000
	SubspaceRotationAdjust: set factor to 0.101
ElecMinimize: Iter:   3  F: -1802.591023085506322  |grad|_K:  4.772e-05  alpha:  3.044e-01  linmin:  7.959e-04  t[s]:  58845.99
	FillingsUpdate:  mu: -0.206179107  nElectrons: 331.000000
	SubspaceRotationAdjust: set factor to 0.0793
ElecMinimize: Iter:   4  F: -1802.603487254317770  |grad|_K:  2.426e-05  alpha:  1.288e-01  linmin: -1.313e-04  t[s]:  59202.02
ElecMinimize: 	Predicted alpha/alphaT>3.000000, increasing alphaT to 3.864139e-01.
	FillingsUpdate:  mu: -0.195668272  nElectrons: 331.000000
	SubspaceRotationAdjust: set factor to 0.118
ElecMinimize: Iter:   5  F: -1802.618238991717817  |grad|_K:  2.277e-05  alpha:  5.876e-01  linmin:  2.650e-05  t[s]:  59643.29
	FillingsUpdate:  mu: -0.186078592  nElectrons: 331.000000
	SubspaceRotationAdjust: set factor to 0.0731
ElecMinimize: Iter:   6  F: -1802.630351576089652  |grad|_K:  3.495e-05  alpha:  5.484e-01  linmin:  2.078e-04  t[s]:  59999.94
	FillingsUpdate:  mu: -0.196924002  nElectrons: 331.000000
	SubspaceRotationAdjust: set factor to 0.0658
ElecMinimize: Iter:   7  F: -1802.641503235644677  |grad|_K:  2.400e-05  alpha:  2.274e-01  linmin:  2.276e-04  t[s]:  60357.83
	FillingsUpdate:  mu: -0.190237996  nElectrons: 331.000000
	SubspaceRotationAdjust: set factor to 0.0741
ElecMinimize: Iter:   8  F: -1802.656348453819646  |grad|_K:  2.149e-05  alpha:  6.217e-01  linmin: -1.221e-06  t[s]:  60712.44
	FillingsUpdate:  mu: -0.184653939  nElectrons: 331.000000
	SubspaceRotationAdjust: set factor to 0.0616
ElecMinimize: Iter:   9  F: -1802.665462194859856  |grad|_K:  2.359e-05  alpha:  4.580e-01  linmin:  4.232e-05  t[s]:  61063.40
	FillingsUpdate:  mu: -0.195700310  nElectrons: 331.000000
	SubspaceRotationAdjust: set factor to 0.0513
ElecMinimize: Iter:  10  F: -1802.672701830327469  |grad|_K:  1.549e-05  alpha:  3.109e-01  linmin: -7.443e-06  t[s]:  61417.42
	FillingsUpdate:  mu: -0.199223048  nElectrons: 331.000000
	SubspaceRotationAdjust: set factor to 0.0597
ElecMinimize: Iter:  11  F: -1802.676330575131715  |grad|_K:  9.434e-06  alpha:  3.549e-01  linmin:  1.181e-05  t[s]:  61769.38
	FillingsUpdate:  mu: -0.198620515  nElectrons: 331.000000
	SubspaceRotationAdjust: set factor to 0.053
ElecMinimize: Iter:  12  F: -1802.677691014363972  |grad|_K:  6.989e-06  alpha:  3.593e-01  linmin:  2.271e-05  t[s]:  62122.55
	FillingsUpdate:  mu: -0.198908138  nElectrons: 331.000000
	SubspaceRotationAdjust: set factor to 0.0473
ElecMinimize: Iter:  13  F: -1802.678404352217740  |grad|_K:  4.485e-06  alpha:  3.434e-01  linmin: -2.204e-05  t[s]:  62481.51
	FillingsUpdate:  mu: -0.199489666  nElectrons: 331.000000
	SubspaceRotationAdjust: set factor to 0.0596
ElecMinimize: Iter:  14  F: -1802.678714350708333  |grad|_K:  3.022e-06  alpha:  3.616e-01  linmin:  2.016e-06  t[s]:  62835.24
	FillingsUpdate:  mu: -0.199957804  nElectrons: 331.000000
	SubspaceRotationAdjust: set factor to 0.0658
ElecMinimize: Iter:  15  F: -1802.678873110306768  |grad|_K:  2.437e-06  alpha:  4.084e-01  linmin:  2.878e-06  t[s]:  63190.79
	FillingsUpdate:  mu: -0.200442836  nElectrons: 331.000000
	SubspaceRotationAdjust: set factor to 0.0635
ElecMinimize: Iter:  16  F: -1802.678983934671805  |grad|_K:  2.284e-06  alpha:  4.381e-01  linmin: -1.438e-05  t[s]:  63545.64
	FillingsUpdate:  mu: -0.200625019  nElectrons: 331.000000
	SubspaceRotationAdjust: set factor to 0.0701
ElecMinimize: Iter:  17  F: -1802.679071004160505  |grad|_K:  1.778e-06  alpha:  3.917e-01  linmin:  8.981e-07  t[s]:  63900.67
	FillingsUpdate:  mu: -0.200848291  nElectrons: 331.000000
	SubspaceRotationAdjust: set factor to 0.0852
ElecMinimize: Iter:  18  F: -1802.679153815807467  |grad|_K:  1.745e-06  alpha:  6.150e-01  linmin:  5.105e-07  t[s]:  64257.12
	FillingsUpdate:  mu: -0.200757904  nElectrons: 331.000000
	SubspaceRotationAdjust: set factor to 0.0782
ElecMinimize: Iter:  19  F: -1802.679217740918375  |grad|_K:  2.006e-06  alpha:  4.935e-01  linmin: -6.554e-06  t[s]:  64610.47
	FillingsUpdate:  mu: -0.200353946  nElectrons: 331.000000
	SubspaceRotationAdjust: set factor to 0.0627
ElecMinimize: Iter:  20  F: -1802.679267228370236  |grad|_K:  1.472e-06  alpha:  2.885e-01  linmin: -2.866e-06  t[s]:  64965.29
	FillingsUpdate:  mu: -0.200104944  nElectrons: 331.000000
	SubspaceRotationAdjust: set factor to 0.0739
ElecMinimize: Iter:  21  F: -1802.679317249270980  |grad|_K:  1.215e-06  alpha:  5.418e-01  linmin: -5.322e-06  t[s]:  65314.62
	FillingsUpdate:  mu: -0.200046316  nElectrons: 331.000000
	SubspaceRotationAdjust: set factor to 0.0776
ElecMinimize: Iter:  22  F: -1802.679346488218016  |grad|_K:  9.991e-07  alpha:  4.653e-01  linmin: -1.585e-06  t[s]:  65666.67
	FillingsUpdate:  mu: -0.199898304  nElectrons: 331.000000
	SubspaceRotationAdjust: set factor to 0.068
ElecMinimize: Iter:  23  F: -1802.679361824478747  |grad|_K:  8.159e-07  alpha:  3.607e-01  linmin:  1.680e-06  t[s]:  66019.16
	FillingsUpdate:  mu: -0.199874317  nElectrons: 331.000000
	SubspaceRotationAdjust: set factor to 0.0596
ElecMinimize: Iter:  24  F: -1802.679370784278944  |grad|_K:  5.923e-07  alpha:  3.162e-01  linmin: -3.188e-07  t[s]:  66372.74
	FillingsUpdate:  mu: -0.199857971  nElectrons: 331.000000
	SubspaceRotationAdjust: set factor to 0.0752
ElecMinimize: Iter:  25  F: -1802.679377252795575  |grad|_K:  4.392e-07  alpha:  4.330e-01  linmin:  3.042e-06  t[s]:  66729.52
	FillingsUpdate:  mu: -0.199895725  nElectrons: 331.000000
	SubspaceRotationAdjust: set factor to 0.0858
ElecMinimize: Iter:  26  F: -1802.679381487977707  |grad|_K:  3.867e-07  alpha:  5.157e-01  linmin: -2.814e-06  t[s]:  67085.13
	FillingsUpdate:  mu: -0.199993106  nElectrons: 331.000000
	SubspaceRotationAdjust: set factor to 0.08
ElecMinimize: Iter:  27  F: -1802.679383888608072  |grad|_K:  3.797e-07  alpha:  3.769e-01  linmin: -1.030e-06  t[s]:  67445.11
	FillingsUpdate:  mu: -0.200080154  nElectrons: 331.000000
	SubspaceRotationAdjust: set factor to 0.0717
ElecMinimize: Iter:  28  F: -1802.679386049740742  |grad|_K:  3.224e-07  alpha:  3.520e-01  linmin: -1.812e-06  t[s]:  67803.55
	FillingsUpdate:  mu: -0.200206860  nElectrons: 331.000000
	SubspaceRotationAdjust: set factor to 0.0812
ElecMinimize: Iter:  29  F: -1802.679388236133718  |grad|_K:  2.503e-07  alpha:  4.941e-01  linmin:  1.357e-06  t[s]:  68161.63
	FillingsUpdate:  mu: -0.200263241  nElectrons: 331.000000
	SubspaceRotationAdjust: set factor to 0.095
ElecMinimize: Iter:  30  F: -1802.679389610968883  |grad|_K:  2.005e-07  alpha:  5.156e-01  linmin:  1.145e-06  t[s]:  68518.94
	FillingsUpdate:  mu: -0.200271788  nElectrons: 331.000000
	SubspaceRotationAdjust: set factor to 0.0949
ElecMinimize: Iter:  31  F: -1802.679390396212966  |grad|_K:  1.984e-07  alpha:  4.585e-01  linmin: -9.483e-06  t[s]:  68875.10
	FillingsUpdate:  mu: -0.200280186  nElectrons: 331.000000
	SubspaceRotationAdjust: set factor to 0.0738
ElecMinimize: Iter:  32  F: -1802.679390836335642  |grad|_K:  1.582e-07  alpha:  2.624e-01  linmin: -3.566e-06  t[s]:  69227.98
	FillingsUpdate:  mu: -0.200253976  nElectrons: 331.000000
	SubspaceRotationAdjust: set factor to 0.0742
ElecMinimize: Iter:  33  F: -1802.679391206790569  |grad|_K:  1.075e-07  alpha:  3.473e-01  linmin: -3.143e-05  t[s]:  69582.08
	FillingsUpdate:  mu: -0.200233972  nElectrons: 331.000000
	SubspaceRotationAdjust: set factor to 0.0873
ElecMinimize: Iter:  34  F: -1802.679391427245037  |grad|_K:  7.945e-08  alpha:  4.490e-01  linmin:  5.759e-05  t[s]:  69938.39
	FillingsUpdate:  mu: -0.200218574  nElectrons: 331.000000
	SubspaceRotationAdjust: set factor to 0.0903
ElecMinimize: Iter:  35  F: -1802.679391551688923  |grad|_K:  6.082e-08  alpha:  4.659e-01  linmin: -2.840e-05  t[s]:  70291.80
	FillingsUpdate:  mu: -0.200202119  nElectrons: 331.000000
	SubspaceRotationAdjust: set factor to 0.0729
ElecMinimize: Iter:  36  F: -1802.679391597322365  |grad|_K:  5.165e-08  alpha:  2.902e-01  linmin:  4.897e-05  t[s]:  70649.46
	FillingsUpdate:  mu: -0.200191407  nElectrons: 331.000000
	SubspaceRotationAdjust: set factor to 0.0667
ElecMinimize: Iter:  37  F: -1802.679391631482076  |grad|_K:  3.430e-08  alpha:  2.995e-01  linmin:  1.205e-04  t[s]:  71002.46
	FillingsUpdate:  mu: -0.200183658  nElectrons: 331.000000
	SubspaceRotationAdjust: set factor to 0.0868
ElecMinimize: Iter:  38  F: -1802.679391656122561  |grad|_K:  2.587e-08  alpha:  4.943e-01  linmin: -1.883e-04  t[s]:  71362.49
	FillingsUpdate:  mu: -0.200180586  nElectrons: 331.000000
	SubspaceRotationAdjust: set factor to 0.0992
ElecMinimize: Iter:  39  F: -1802.679391670194491  |grad|_K:  2.511e-08  alpha:  4.827e-01  linmin: -2.746e-05  t[s]:  71722.16
	FillingsUpdate:  mu: -0.200180468  nElectrons: 331.000000
	SubspaceRotationAdjust: set factor to 0.092
ElecMinimize: Iter:  40  F: -1802.679391681695506  |grad|_K:  2.932e-08  alpha:  4.145e-01  linmin:  9.258e-05  t[s]:  72076.32
	FillingsUpdate:  mu: -0.200177972  nElectrons: 331.000000
	SubspaceRotationAdjust: set factor to 0.0811
ElecMinimize: Iter:  41  F: -1802.679391693156276  |grad|_K:  2.449e-08  alpha:  3.164e-01  linmin: -5.634e-05  t[s]:  72433.77
	FillingsUpdate:  mu: -0.200179831  nElectrons: 331.000000
	SubspaceRotationAdjust: set factor to 0.0957
ElecMinimize: Iter:  42  F: -1802.679391705823264  |grad|_K:  1.880e-08  alpha:  4.530e-01  linmin: -1.860e-04  t[s]:  72793.18
	FillingsUpdate:  mu: -0.200183500  nElectrons: 331.000000
	SubspaceRotationAdjust: set factor to 0.103
ElecMinimize: Iter:  43  F: -1802.679391713885479  |grad|_K:  1.576e-08  alpha:  4.874e-01  linmin: -2.897e-04  t[s]:  73146.57
	FillingsUpdate:  mu: -0.200184602  nElectrons: 331.000000
	SubspaceRotationAdjust: set factor to 0.0843
ElecMinimize: Iter:  44  F: -1802.679391717903172  |grad|_K:  1.717e-08  alpha:  3.467e-01  linmin:  1.593e-04  t[s]:  73499.43
[...]
FluidMinimize: Iter:  62  F: -0.002250596482244  |grad|_K:  2.026e-05  alpha:  1.717e-02  linmin:  4.827e-03  cgtest:  2.348e-01  t[s]:   5480.62
FluidMinimize: Iter:  63  F: -0.002258795026551  |grad|_K:  2.439e-05  alpha:  2.467e-02  linmin:  1.237e-02  cgtest:  7.718e-01  t[s]:   5481.13
FluidMinimize: Iter:  64  F: -0.002264256088930  |grad|_K:  2.652e-05  alpha:  1.240e-02  linmin:  9.584e-03  cgtest: -5.751e-02  t[s]:   5481.67
FluidMinimize: Iter:  65  F: -0.002268293723587  |grad|_K:  1.121e-05  alpha:  6.601e-03  linmin: -2.081e-03  cgtest:  9.366e-02  t[s]:   5482.18
FluidMinimize: 	Predicted alpha/alphaT>3.000000, increasing alphaT to 1.980248e-02.
FluidMinimize: Iter:  66  F: -0.002270947028673  |grad|_K:  1.060e-05  alpha:  2.360e-02  linmin:  1.045e-03  cgtest: -8.732e-03  t[s]:   5482.92
FluidMinimize: Iter:  67  F: -0.002272186778081  |grad|_K:  1.623e-05  alpha:  1.302e-02  linmin:  1.291e-03  cgtest:  2.288e-03  t[s]:   5483.43
FluidMinimize: Iter:  68  F: -0.002278285413938  |grad|_K:  1.137e-05  alpha:  2.687e-02  linmin:  5.929e-03  cgtest: -4.854e-01  t[s]:   5483.95
FluidMinimize: Iter:  69  F: -0.002280418798484  |grad|_K:  1.789e-05  alpha:  2.041e-02  linmin: -2.473e-03  cgtest: -1.632e-02  t[s]:   5484.46
FluidMinimize: Iter:  70  F: -0.002283878798095  |grad|_K:  1.189e-05  alpha:  1.054e-02  linmin: -6.288e-03  cgtest: -4.320e-02  t[s]:   5484.98
FluidMinimize: Iter:  71  F: -0.002286669596244  |grad|_K:  1.332e-05  alpha:  2.031e-02  linmin: -2.640e-03  cgtest:  4.428e-02  t[s]:   5485.49
FluidMinimize: Iter:  72  F: -0.002287987346545  |grad|_K:  1.120e-05  alpha:  7.295e-03  linmin: -4.477e-03  cgtest:  1.904e-01  t[s]:   5486.01
FluidMinimize: 	Predicted alpha/alphaT>3.000000, increasing alphaT to 2.188600e-02.
FluidMinimize: Iter:  73  F: -0.002291916376560  |grad|_K:  1.451e-05  alpha:  3.234e-02  linmin: -6.986e-03  cgtest:  3.219e-02  t[s]:   5486.74
FluidMinimize: Iter:  74  F: -0.002294250713904  |grad|_K:  1.704e-05  alpha:  1.035e-02  linmin: -7.367e-03  cgtest:  8.794e-02  t[s]:   5487.26
FluidMinimize: Iter:  75  F: -0.002300389588491  |grad|_K:  1.146e-05  alpha:  2.102e-02  linmin: -5.489e-03  cgtest:  3.878e-02  t[s]:   5487.77
FluidMinimize: Iter:  76  F: -0.002303305116672  |grad|_K:  1.958e-05  alpha:  2.387e-02  linmin:  1.631e-03  cgtest: -1.702e-02  t[s]:   5488.29
FluidMinimize: Iter:  77  F: -0.002305908191005  |grad|_K:  1.365e-05  alpha:  9.491e-03  linmin:  9.791e-03  cgtest: -8.380e-02  t[s]:   5488.81
FluidMinimize: 	Predicted alpha/alphaT>3.000000, increasing alphaT to 2.847380e-02.
FluidMinimize: Iter:  78  F: -0.002309918721488  |grad|_K:  1.425e-05  alpha:  2.738e-02  linmin:  3.539e-03  cgtest:  4.461e-02  t[s]:   5489.55
FluidMinimize: Iter:  79  F: -0.002311248907026  |grad|_K:  1.406e-05  alpha:  8.641e-03  linmin:  5.524e-03  cgtest: -8.666e-02  t[s]:   5490.06
FluidMinimize: Iter:  80  F: -0.002314761517032  |grad|_K:  1.502e-05  alpha:  2.444e-02  linmin:  1.452e-02  cgtest: -1.667e-01  t[s]:   5490.58
FluidMinimize: Iter:  81  F: -0.002315995912412  |grad|_K:  1.182e-05  alpha:  8.592e-03  linmin:  3.084e-03  cgtest:  2.919e-01  t[s]:   5491.09
FluidMinimize: Iter:  82  F: -0.002318882895104  |grad|_K:  2.240e-05  alpha:  2.543e-02  linmin:  6.487e-03  cgtest: -8.828e-02  t[s]:   5491.60
FluidMinimize: Iter:  83  F: -0.002322519914240  |grad|_K:  1.436e-05  alpha:  1.040e-02  linmin:  7.573e-03  cgtest:  3.336e-01  t[s]:   5492.11
FluidMinimize: Iter:  84  F: -0.002326521517934  |grad|_K:  1.231e-05  alpha:  2.267e-02  linmin:  2.618e-04  cgtest:  1.261e-02  t[s]:   5492.63
FluidMinimize: Iter:  85  F: -0.002329674038775  |grad|_K:  2.436e-05  alpha:  2.365e-02  linmin:  2.012e-03  cgtest:  9.285e-03  t[s]:   5493.15
FluidMinimize: Iter:  86  F: -0.002333723191724  |grad|_K:  1.472e-05  alpha:  9.657e-03  linmin:  1.569e-02  cgtest: -5.680e-02  t[s]:   5493.67
FluidMinimize: 	Predicted alpha/alphaT>3.000000, increasing alphaT to 2.896981e-02.
FluidMinimize: Iter:  87  F: -0.002344440169461  |grad|_K:  1.837e-05  alpha:  7.481e-02  linmin:  3.476e-02  cgtest: -1.695e-01  t[s]:   5494.43
FluidMinimize: Iter:  88  F: -0.002345266910155  |grad|_K:  1.617e-05  alpha:  7.220e-03  linmin:  2.533e-02  cgtest:  8.807e-02  t[s]:   5494.95
FluidMinimize: Iter:  89  F: -0.002348463494325  |grad|_K:  1.537e-05  alpha:  1.853e-02  linmin:  3.926e-03  cgtest:  5.848e-03  t[s]:   5495.46
FluidMinimize: Iter:  90  F: -0.002351229247417  |grad|_K:  2.014e-05  alpha:  1.422e-02  linmin: -1.184e-03  cgtest: -5.809e-02  t[s]:   5495.97
FluidMinimize: Iter:  91  F: -0.002355365970565  |grad|_K:  1.603e-05  alpha:  1.099e-02  linmin:  2.865e-03  cgtest: -2.107e-01  t[s]:   5496.51
FluidMinimize: Iter:  92  F: -0.002359542387426  |grad|_K:  1.739e-05  alpha:  1.833e-02  linmin: -6.129e-03  cgtest:  1.822e-01  t[s]:   5497.03
FluidMinimize: Iter:  93  F: -0.002363043905130  |grad|_K:  2.130e-05  alpha:  1.196e-02  linmin: -1.692e-04  cgtest: -4.865e-02  t[s]:   5497.54
FluidMinimize: Iter:  94  F: -0.002366668273436  |grad|_K:  1.250e-05  alpha:  9.204e-03  linmin: -1.350e-03  cgtest:  2.864e-01  t[s]:   5498.06
FluidMinimize: 	Predicted alpha/alphaT>3.000000, increasing alphaT to 2.761077e-02.
FluidMinimize: Iter:  95  F: -0.002373639725584  |grad|_K:  1.451e-05  alpha:  5.123e-02  linmin:  6.584e-03  cgtest: -1.057e-01  t[s]:   5498.79
FluidMinimize: Iter:  96  F: -0.002376882035213  |grad|_K:  2.189e-05  alpha:  1.727e-02  linmin: -3.497e-03  cgtest:  1.556e-01  t[s]:   5499.32
FluidMinimize: Iter:  97  F: -0.002380098590991  |grad|_K:  1.575e-05  alpha:  7.880e-03  linmin:  5.379e-03  cgtest: -2.836e-01  t[s]:   5499.84
FluidMinimize: 	Predicted alpha/alphaT>3.000000, increasing alphaT to 2.363902e-02.
FluidMinimize: Iter:  98  F: -0.002385196126572  |grad|_K:  1.997e-05  alpha:  2.505e-02  linmin:  6.506e-03  cgtest:  1.207e-01  t[s]:   5500.59
FluidMinimize: Iter:  99  F: -0.002388617377506  |grad|_K:  1.755e-05  alpha:  1.079e-02  linmin:  1.683e-03  cgtest:  7.055e-02  t[s]:   5501.10
FluidMinimize: Iter: 100  F: -0.002391208795498  |grad|_K:  1.711e-05  alpha:  9.599e-03  linmin:  2.277e-03  cgtest:  2.028e-03  t[s]:   5501.62
FluidMinimize: None of the convergence criteria satisfied after 100 iterations.

Fluid minimization # 3 changed total free energy by -5.371648e-04 at t[s]:   5501.92

-------------------- Electronic Minimization # 3 ---------------------
	FillingsUpdate:  mu: -0.188113307  nElectrons: 331.000000
ElecMinimize: Iter:   0  F: -1802.709180562276515  |grad|_K:  1.391e-06  alpha:  1.000e+00
	FillingsUpdate:  mu: -0.187767802  nElectrons: 331.000000
	SubspaceRotationAdjust: set factor to 0.0804
ElecMinimize: Iter:   1  F: -1802.709193784405670  |grad|_K:  9.294e-07  alpha:  1.610e-01  linmin:  1.271e-04  t[s]:   6006.01
	FillingsUpdate:  mu: -0.187847431  nElectrons: 331.000000
	SubspaceRotationAdjust: set factor to 0.0969
ElecMinimize: Iter:   2  F: -1802.709205739504341  |grad|_K:  5.048e-07  alpha:  3.260e-01  linmin:  4.564e-06  t[s]:   6355.49
	FillingsUpdate:  mu: -0.187510893  nElectrons: 331.000000
	SubspaceRotationAdjust: set factor to 0.13
ElecMinimize: Iter:   3  F: -1802.709213334498827  |grad|_K:  4.097e-07  alpha:  6.994e-01  linmin: -2.020e-05  t[s]:   6707.27
	FillingsUpdate:  mu: -0.187246966  nElectrons: 331.000000
	SubspaceRotationAdjust: set factor to 0.123
ElecMinimize: Iter:   4  F: -1802.709217989474610  |grad|_K:  5.330e-07  alpha:  6.499e-01  linmin: -1.941e-06  t[s]:   7062.65
	FillingsUpdate:  mu: -0.187347537  nElectrons: 331.000000
	SubspaceRotationAdjust: set factor to 0.0971
ElecMinimize: Iter:   5  F: -1802.709221440374677  |grad|_K:  5.803e-07  alpha:  2.852e-01  linmin:  1.795e-07  t[s]:   7416.43
	FillingsUpdate:  mu: -0.187164199  nElectrons: 331.000000
	SubspaceRotationAdjust: set factor to 0.0968
ElecMinimize: Iter:   6  F: -1802.709227178051606  |grad|_K:  4.279e-07  alpha:  4.001e-01  linmin: -3.418e-06  t[s]:   7774.41
	FillingsUpdate:  mu: -0.186903193  nElectrons: 331.000000
	SubspaceRotationAdjust: set factor to 0.109
ElecMinimize: Iter:   7  F: -1802.709232070497819  |grad|_K:  3.464e-07  alpha:  6.263e-01  linmin: -3.137e-06  t[s]:   8126.84
	FillingsUpdate:  mu: -0.186997565  nElectrons: 331.000000
	SubspaceRotationAdjust: set factor to 0.0818
ElecMinimize: Iter:   8  F: -1802.709233587370818  |grad|_K:  3.138e-07  alpha:  2.966e-01  linmin: -5.634e-08  t[s]:   8480.68
	FillingsUpdate:  mu: -0.186944406  nElectrons: 331.000000
	SubspaceRotationAdjust: set factor to 0.0652
ElecMinimize: Iter:   9  F: -1802.709234769497925  |grad|_K:  1.767e-07  alpha:  2.820e-01  linmin:  3.163e-07  t[s]:   8832.38
	FillingsUpdate:  mu: -0.186907305  nElectrons: 331.000000
	SubspaceRotationAdjust: set factor to 0.0824
ElecMinimize: Iter:  10  F: -1802.709235322019595  |grad|_K:  1.261e-07  alpha:  4.153e-01  linmin: -4.282e-06  t[s]:   9182.17
	FillingsUpdate:  mu: -0.186888846  nElectrons: 331.000000
	SubspaceRotationAdjust: set factor to 0.0934
ElecMinimize: Iter:  11  F: -1802.709235606357879  |grad|_K:  9.100e-08  alpha:  4.195e-01  linmin:  5.088e-06  t[s]:   9536.47
ElecMinimize: Converged (|Delta F|<1.116058e-06 for 2 iters).
Setting wave functions to eigenvectors of Hamiltonian

Electronic minimization # 3 changed total free energy by -7.564739e-05 at t[s]:   9553.34

---------------------- Fluid Minimization # 4 -----------------------
FluidMinimize: Iter:   0  F: -0.002912545001104  |grad|_K:  2.711e-05  alpha:  1.000e+00
FluidMinimize: Iter:   1  F: -0.002912554278623  |grad|_K:  2.709e-05  alpha:  7.138e-06  linmin: -7.183e-02  cgtest:  1.000e+00  t[s]:   9554.14
FluidMinimize: Encountered beta<0, resetting CG.
FluidMinimize: 	Predicted alpha/alphaT>3.000000, increasing alphaT to 2.141391e-05.
FluidMinimize: 	Predicted alpha/alphaT>3.000000, increasing alphaT to 6.424174e-05.
FluidMinimize: 	Predicted alpha/alphaT>3.000000, increasing alphaT to 1.927252e-04.
FluidMinimize: 	Predicted alpha/alphaT>3.000000, increasing alphaT to 5.781757e-04.
FluidMinimize: 	Predicted alpha/alphaT>3.000000, increasing alphaT to 1.734527e-03.
FluidMinimize: 	Predicted alpha/alphaT>3.000000, increasing alphaT to 5.203581e-03.
FluidMinimize: Iter:   2  F: -0.002919329852339  |grad|_K:  3.098e-05  alpha:  1.061e-02  linmin:  1.738e-03  cgtest: -2.345e-02  t[s]:   9555.79
FluidMinimize: Iter:   3  F: -0.002923069169276  |grad|_K:  1.603e-05  alpha:  4.669e-03  linmin:  1.358e-03  cgtest:  5.805e-02  t[s]:   9556.29
FluidMinimize: 	Predicted alpha/alphaT>3.000000, increasing alphaT to 1.400690e-02.
FluidMinimize: Iter:   4  F: -0.002930546688279  |grad|_K:  1.442e-05  alpha:  3.363e-02  linmin:  1.293e-03  cgtest: -6.868e-02  t[s]:   9557.03
FluidMinimize: Iter:   5  F: -0.002933527783906  |grad|_K:  2.716e-05  alpha:  1.589e-02  linmin: -1.392e-03  cgtest:  3.992e-02  t[s]:   9557.53
FluidMinimize: Iter:   6  F: -0.002937979393114  |grad|_K:  1.173e-05  alpha:  7.485e-03  linmin:  7.515e-03  cgtest: -2.433e-01  t[s]:   9558.03
FluidMinimize: Converged (|Delta F|<5.371648e-06 for 2 iters).

Fluid minimization # 4 changed total free energy by -2.543439e-05 at t[s]:   9558.33

-------------------- Electronic Minimization # 4 ---------------------
	FillingsUpdate:  mu: -0.188535520  nElectrons: 331.000000
ElecMinimize: Iter:   0  F: -1802.709231834555794  |grad|_K:  2.414e-06  alpha:  1.000e+00
	FillingsUpdate:  mu: -0.189106368  nElectrons: 331.000000
	SubspaceRotationAdjust: set factor to 0.109
ElecMinimize: Iter:   1  F: -1802.709263008930748  |grad|_K:  3.931e-07  alpha:  1.256e-01  linmin: -1.084e-04  t[s]:  10058.41
ElecMinimize: 	Predicted alpha/alphaT>3.000000, increasing alphaT to 3.768696e-01.
	FillingsUpdate:  mu: -0.188791422  nElectrons: 331.000000
	SubspaceRotationAdjust: set factor to 0.164
ElecMinimize: Iter:   2  F: -1802.709266190014660  |grad|_K:  2.370e-07  alpha:  4.834e-01  linmin:  1.780e-06  t[s]:  10492.32
	FillingsUpdate:  mu: -0.188656831  nElectrons: 331.000000
	SubspaceRotationAdjust: set factor to 0.204
ElecMinimize: Iter:   3  F: -1802.709267634360231  |grad|_K:  1.964e-07  alpha:  6.042e-01  linmin:  3.344e-06  t[s]:  10847.94
ElecMinimize: Converged (|Delta F|<5.371648e-06 for 2 iters).
Setting wave functions to eigenvectors of Hamiltonian

Electronic minimization # 4 changed total free energy by -6.593612e-06 at t[s]:  10863.13

---------------------- Fluid Minimization # 5 -----------------------
FluidMinimize: Iter:   0  F: -0.003005579559277  |grad|_K:  2.768e-05  alpha:  1.000e+00
FluidMinimize: Iter:   1  F: -0.003005579559587  |grad|_K:  2.768e-05  alpha:  2.285e-10  linmin: -1.158e-01  cgtest:  1.000e+00  t[s]:  10863.94
FluidMinimize: Encountered beta<0, resetting CG.
FluidMinimize: 	Wrong curvature in test step, increasing alphaT to 6.855722e-10.
FluidMinimize: Iter:   2  F: -0.003005579559897  |grad|_K:  2.768e-05  alpha: -1.310e-07  linmin: -1.158e-01  cgtest:  1.000e+00  t[s]:  10864.44
FluidMinimize: Encountered beta<0, resetting CG.
FluidMinimize: Converged (|Delta F|<2.543439e-07 for 2 iters).

Fluid minimization # 5 changed total free energy by -6.196927e-13 at t[s]:  10864.74

-------------------- Electronic Minimization # 5 ---------------------
	FillingsUpdate:  mu: -0.188186100  nElectrons: 331.000000
ElecMinimize: Iter:   0  F: -1802.709266368069621  |grad|_K:  4.880e-07  alpha:  1.000e+00
	FillingsUpdate:  mu: -0.188198314  nElectrons: 331.000000
	SubspaceRotationAdjust: set factor to 0.127
ElecMinimize: Iter:   1  F: -1802.709268351610717  |grad|_K:  4.848e-07  alpha:  1.955e-01  linmin: -1.225e-05  t[s]:  11367.81
	FillingsUpdate:  mu: -0.188383442  nElectrons: 331.000000
	SubspaceRotationAdjust: set factor to 0.0932
ElecMinimize: Iter:   2  F: -1802.709269521881424  |grad|_K:  1.437e-07  alpha:  1.169e-01  linmin:  1.771e-06  t[s]:  11720.87
ElecMinimize: 	Predicted alpha/alphaT>3.000000, increasing alphaT to 3.507007e-01.
	FillingsUpdate:  mu: -0.188365196  nElectrons: 331.000000
	SubspaceRotationAdjust: set factor to 0.137
ElecMinimize: Iter:   3  F: -1802.709269856192805  |grad|_K:  7.719e-08  alpha:  3.798e-01  linmin: -9.711e-06  t[s]:  12156.90
	FillingsUpdate:  mu: -0.188353009  nElectrons: 331.000000
	SubspaceRotationAdjust: set factor to 0.0901
ElecMinimize: Iter:   4  F: -1802.709269934535541  |grad|_K:  7.569e-08  alpha:  3.100e-01  linmin:  2.514e-06  t[s]:  12511.42
	FillingsUpdate:  mu: -0.188385077  nElectrons: 331.000000
	SubspaceRotationAdjust: set factor to 0.071
ElecMinimize: Iter:   5  F: -1802.709269988994492  |grad|_K:  4.916e-08  alpha:  2.221e-01  linmin:  4.447e-05  t[s]:  12861.10
ElecMinimize: Converged (|Delta F|<2.543439e-07 for 2 iters).
Setting wave functions to eigenvectors of Hamiltonian

Electronic minimization # 5 changed total free energy by -2.354634e-06 at t[s]:  12875.94

Fluid<-->Electron self-consistency loop converged to 1.000000e-05 hartrees after 5 minimization pairs at t[s]:  12875.94.

# Ionic positions in lattice coordinates:
ion O   0.500000000000000   0.305239737408787   0.339032747577985 1
ion C   0.500000000000000   0.489420136137164   0.299385887385051 1
ion H   0.500000000000000   0.679534231546392   0.325226427767303 1
ion Pt   0.000000000000000   0.000000000000000  -0.166660000000000 0
ion Pt   0.000000000000000   0.500000000000000  -0.166660000000000 0
ion Pt   0.500000000000000   0.000000000000000  -0.166660000000000 0
ion Pt   0.500000000000000   0.500000000000000  -0.166660000000000 0
ion Pt   0.250000000000000   0.250000000000000  -0.083330000000000 0
ion Pt   0.250000000000000   0.750000000000000  -0.083330000000000 0
ion Pt   0.750000000000000   0.250000000000000  -0.083330000000000 0
ion Pt   0.750000000000000   0.750000000000000  -0.083330000000000 0
ion Pt   0.000000000000000   0.000474298729597   0.006365046915323 1
ion Pt   0.000000000000000   0.500567702736367   0.007496691882037 1
ion Pt   0.500000000000000   0.000600132445603   0.008499819367171 1
ion Pt   0.500000000000000   0.500557476340988   0.009339771027884 1
ion Pt   0.246831700502982   0.250301312484254   0.100039894890399 1
ion Pt   0.246984973671510   0.752776994940643   0.100132913498254 1
ion Pt   0.753168299497018   0.250301312484254   0.100039894890399 1
ion Pt   0.753015026328490   0.752776994940643   0.100132913498254 1
ion Pt   0.000000000000000   0.001017550489565   0.184538274407799 1
ion Pt   0.000000000000000   0.501257868160012   0.184519614551089 1
ion Pt   0.500000000000000   0.003699574647138   0.182085269049600 1
ion Pt   0.500000000000000   0.503707515234019   0.183124078286888 1


# Forces in Lattice coordinates:
force O   0.000000000000000  -0.048760625088352   0.185508297052586 1
force C   0.000000000000000   0.076877696096031   0.040347471234755 1
force H   0.000000000000000  -0.051771733795138   0.089044429787564 1
force Pt   0.000000000000000  -0.000558599225892  -0.211247888811145 0
force Pt   0.000000000000000   0.000016784935751  -0.182088662279946 0
force Pt   0.000000000000000  -0.000756978059571  -0.134747013415831 0
force Pt   0.000000000000000   0.000281200824954  -0.163855580600541 0
force Pt   0.032027038982983   0.013969968738123  -0.052272542129783 0
force Pt   0.032321928789774  -0.009141630719235  -0.048597666101363 0
force Pt  -0.032027038982983   0.013969968738123  -0.052272542129783 0
force Pt  -0.032321928789774  -0.009141630719235  -0.048597666101363 0
force Pt   0.000000000000000   0.001658299060784   0.093887562503096 1
force Pt   0.000000000000000   0.000914741888411   0.100516713524290 1
force Pt   0.000000000000000   0.000193828671330   0.095737080003114 1
force Pt   0.000000000000000   0.003551015687309   0.080936087493108 1
force Pt  -0.001409431215176   0.012933529353418  -0.031675255138475 1
force Pt  -0.004107866851236  -0.006073438030478  -0.038037993465937 1
force Pt   0.001409431215176   0.012933529353418  -0.031675255138475 1
force Pt   0.004107866851236  -0.006073438030478  -0.038037993465937 1
force Pt   0.000000000000000   0.004635272969488   0.143860507106332 1
force Pt   0.000000000000000   0.001585233689809   0.108560752969051 1
force Pt   0.000000000000000   0.004849086728233   0.044944372073020 1
force Pt   0.000000000000000  -0.020149221130045   0.074237568037486 1

# Energy components:
   A_diel =       -0.0030814221298321
   Eewald =    13272.2197281641638256
       EH =    14872.2650428847919102
     Eloc =   -30263.3747887027020624
      Enl =      -17.7196989382427219
      Exc =     -572.0673593646577046
 Exc_core =      324.9288585678755226
       KE =      581.2709599703994172
  MuShift =       -0.0000000000027612
-------------------------------------
     Etot =    -1802.4803388405066471
       TS =        0.2289311484878905
-------------------------------------
        F =    -1802.7092699889944925

IonicMinimize: Iter:   0  F: -1802.709269988994492  |grad|_K:  2.296e-03  t[s]:  12919.17
IonicMinimize: None of the convergence criteria satisfied after 0 iterations.

#--- Lowdin population analysis ---
# oxidation-state O -0.211
# oxidation-state C +0.267
# oxidation-state H +0.260
# oxidation-state Pt +0.071 +0.071 +0.068 +0.067 -0.048 -0.048 -0.048 -0.048 +0.004 +0.002 +0.004 -0.018 -0.050 -0.053 -0.050 -0.053 +0.068 +0.074 +0.056 -0.023


Dumping '100_0-Solvated.ionpos' ... done
Dumping '100_0-Solvated.n' ... done
Dumping '100_0-Solvated.eigStats' ... 
	eMin: -2.144771 at state 0 ( [ +0.000000 +0.000000 +0.000000 ] spin 0 )
	HOMO: -0.189269 at state 0 ( [ +0.000000 +0.000000 +0.000000 ] spin 0 )
	mu  : -0.188385
	LUMO: -0.188163 at state 0 ( [ +0.000000 +0.000000 +0.000000 ] spin 0 )
	eMax: +0.356422 at state 5 ( [ +0.250000 +0.500000 +0.000000 ] spin 0 )
	HOMO-LUMO gap: +0.001106
	Optical gap  : +0.001106 at state 0 ( [ +0.000000 +0.000000 +0.000000 ] spin 0 )
Dumping '100_0-Solvated.Ecomponents' ... done
End date and time: Sun May 26 02:57:30 2019  (Duration: 0-3:36:08.59)
Done!
