--------------------------------------------------------------------------
Initialization of PSM library failed.

  Error: PSM is in the finalized state
--------------------------------------------------------------------------
--------------------------------------------------------------------------
The OpenFabrics (openib) BTL failed to initialize while trying to
allocate some locked memory.  This typically can indicate that the
memlock limits are set too low.  For most HPC installations, the
memlock limits should be set to "unlimited".  The failure occured
here:

  Local host:    node2020
  OMPI source:   btl_openib.c:753
  Function:      ompi_free_list_init_ex_new()
  Device:        qib0
  Memlock limit: 65536

You may need to consult with your system administrator to get this
problem fixed.  This FAQ entry on the Open MPI web site may also be
helpful:

    http://www.open-mpi.org/faq/?category=openfabrics#ib-locked-pages
--------------------------------------------------------------------------

*************** JDFTx 1.4.2 (git hash 74b6e54) ***************

Start date and time: Sat Jun  1 03:13:13 2019
Executable /home/jfm343/JDFTXDIR/build/jdftx with command-line: -i Solvated.in
Running on hosts (process indices):  node2020.physics.cornell.edu (0)
Divided in process groups (process indices):  0 (0)
Resource initialization completed at t[s]:      0.00
Run totals: 1 processes, 12 threads, 0 GPUs


Input parsed successfully to the following command list (including defaults):

basis kpoint-dependent
coords-type Lattice
core-overlap-check vector
coulomb-interaction Periodic
davidson-band-ratio 1.1
dump End IonicPositions ElecDensity EigStats Ecomponents
dump-name 100_0-Solvated.$VAR
elec-cutoff 20 100
elec-eigen-algo Davidson
elec-ex-corr gga-PBEsol
elec-smearing Fermi 0.01
electronic-minimize  \
	dirUpdateScheme      FletcherReeves \
	linminMethod         DirUpdateRecommended \
	nIterations          200 \
	history              15 \
	knormThreshold       0 \
	energyDiffThreshold  1e-08 \
	nEnergyDiff          2 \
	alphaTstart          1 \
	alphaTmin            1e-10 \
	updateTestStepSize   yes \
	alphaTreduceFactor   0.1 \
	alphaTincreaseFactor 3 \
	nAlphaAdjustMax      3 \
	wolfeEnergy          0.0001 \
	wolfeGradient        0.9 \
	fdTest               no
exchange-regularization WignerSeitzTruncated
fluid NonlinearPCM 298.000000 1.013250
fluid-anion ClO4- 0.2 MeanFieldLJ \
	epsBulk 1 \
	pMol 0 \
	epsInf 1 \
	Pvap 0 \
	sigmaBulk 0 \
	Rvdw 4.55424 \
	Res 0 \
	tauNuc 343133 \
	omegaEl 0.55124 \
	gammaEl 0.257245
fluid-cation Na+ 0.2 MeanFieldLJ \
	epsBulk 1 \
	pMol 0 \
	epsInf 1 \
	Pvap 0 \
	sigmaBulk 0 \
	Rvdw 2.19208 \
	Res 0 \
	tauNuc 343133 \
	omegaEl 0.55124 \
	gammaEl 0.257245
fluid-ex-corr lda-TF lda-PZ
fluid-gummel-loop 10 1.000000e-05
fluid-minimize  \
	dirUpdateScheme      PolakRibiere \
	linminMethod         DirUpdateRecommended \
	nIterations          100 \
	history              15 \
	knormThreshold       1e-11 \
	energyDiffThreshold  0 \
	nEnergyDiff          2 \
	alphaTstart          1 \
	alphaTmin            1e-10 \
	updateTestStepSize   yes \
	alphaTreduceFactor   0.1 \
	alphaTincreaseFactor 3 \
	nAlphaAdjustMax      6 \
	wolfeEnergy          0.0001 \
	wolfeGradient        0.9 \
	fdTest               no
fluid-solvent H2O 55.338 ScalarEOS \
	epsBulk 78.4 \
	pMol 0.92466 \
	epsInf 1.77 \
	Pvap 1.06736e-10 \
	sigmaBulk 4.62e-05 \
	Rvdw 2.61727 \
	Res 1.42 \
	tauNuc 343133 \
	omegaEl 0.55124 \
	gammaEl 0.257245
forces-output-coords Positions
initial-state 100_0-Vacuum.$VAR
ion O   0.500000000000000   0.304423550890550   0.339153217686786 1
ion C   0.500000000000000   0.488767071287260   0.299562831654448 1
ion H   0.500000000000000   0.678690294196894   0.325238513066737 1
ion Pt   0.000000000000000   0.000000000000000  -0.166660000000000 0
ion Pt   0.000000000000000   0.500000000000000  -0.166660000000000 0
ion Pt   0.500000000000000   0.000000000000000  -0.166660000000000 0
ion Pt   0.500000000000000   0.500000000000000  -0.166660000000000 0
ion Pt   0.250000000000000   0.250000000000000  -0.083330000000000 0
ion Pt   0.250000000000000   0.750000000000000  -0.083330000000000 0
ion Pt   0.750000000000000   0.250000000000000  -0.083330000000000 0
ion Pt   0.750000000000000   0.750000000000000  -0.083330000000000 0
ion Pt   0.000000000000000   0.000536137744999   0.006476089368976 1
ion Pt   0.000000000000000   0.500679479810856   0.007581745286657 1
ion Pt   0.500000000000000   0.000697155894750   0.008560999731273 1
ion Pt   0.500000000000000   0.500678450930038   0.009300988656817 1
ion Pt   0.246858551198002   0.250747864833470   0.100197588404874 1
ion Pt   0.247080518896339   0.752750981914416   0.100340078604641 1
ion Pt   0.753141448801997   0.250747864833470   0.100197588404874 1
ion Pt   0.752919481103661   0.752750981914416   0.100340078604641 1
ion Pt   0.000000000000000   0.001225927790808   0.183632543113588 1
ion Pt   0.000000000000000   0.501508249513453   0.183611157984700 1
ion Pt   0.500000000000000   0.004136562223003   0.181199880352149 1
ion Pt   0.500000000000000   0.503667324653520   0.182430396807134 1
ion-species GBRV/$ID_pbesol.uspp
ion-width Ecut
ionic-minimize  \
	dirUpdateScheme      L-BFGS \
	linminMethod         DirUpdateRecommended \
	nIterations          0 \
	history              15 \
	knormThreshold       0.0001 \
	energyDiffThreshold  1e-06 \
	nEnergyDiff          2 \
	alphaTstart          1 \
	alphaTmin            1e-10 \
	updateTestStepSize   yes \
	alphaTreduceFactor   0.1 \
	alphaTincreaseFactor 3 \
	nAlphaAdjustMax      3 \
	wolfeEnergy          0.0001 \
	wolfeGradient        0.9 \
	fdTest               no
kpoint   0.000000000000   0.000000000000   0.000000000000  1.00000000000000
kpoint-folding 4 4 1 
latt-move-scale 1 1 1
latt-scale 1 1 1 
lattice Triclinic 13.7988 10.3727 31.1182 90 90 90
lattice-minimize  \
	dirUpdateScheme      L-BFGS \
	linminMethod         DirUpdateRecommended \
	nIterations          0 \
	history              15 \
	knormThreshold       0 \
	energyDiffThreshold  1e-06 \
	nEnergyDiff          2 \
	alphaTstart          1 \
	alphaTmin            1e-10 \
	updateTestStepSize   yes \
	alphaTreduceFactor   0.1 \
	alphaTincreaseFactor 3 \
	nAlphaAdjustMax      3 \
	wolfeEnergy          0.0001 \
	wolfeGradient        0.9 \
	fdTest               no
lcao-params -1 1e-06 0.01
pcm-variant GLSSA13
spintype no-spin
subspace-rotation-factor 1 yes
symmetries automatic
symmetry-threshold 0.0001



---------- Setting up symmetries ----------

Found 8 point-group symmetries of the bravais lattice
Found 2 space-group symmetries with basis
Applied RMS atom displacement 1.86041e-15 bohrs to make symmetries exact.

---------- Initializing the Grid ----------
R = 
[    13.7988          0          0  ]
[          0    10.3727          0  ]
[          0          0    31.1182  ]
unit cell volume = 4453.99
G =
[   0.455343          0          0  ]
[          0   0.605741          0  ]
[          0          0   0.201914  ]
Minimum fftbox size, Smin = [  64  48  144  ]
Chosen fftbox size, S = [  64  48  144  ]

---------- Initializing tighter grid for wavefunction operations ----------
R = 
[    13.7988          0          0  ]
[          0    10.3727          0  ]
[          0          0    31.1182  ]
unit cell volume = 4453.99
G =
[   0.455343          0          0  ]
[          0   0.605741          0  ]
[          0          0   0.201914  ]
Minimum fftbox size, Smin = [  56  44  128  ]
Chosen fftbox size, S = [  56  48  128  ]

---------- Exchange Correlation functional ----------
Initalized PBEsol GGA exchange.
Initalized PBEsol GGA correlation.

---------- Setting up pseudopotentials ----------
Width of ionic core gaussian charges (only for fluid interactions / plotting) set to 0.397384

Reading pseudopotential file '/home/jfm343/JDFTXDIR/build/pseudopotentials/GBRV/o_pbesol.uspp':
  Title: O.  Created by USPP 7.3.6 on 3-2-2014
  Reference state energy: -15.849885.  6 valence electrons in orbitals:
    |200>  occupation: 2  eigenvalue: -0.873214
    |210>  occupation: 4  eigenvalue: -0.330058
  lMax: 2  lLocal: 2  QijEcut: 6
  5 projectors sampled on a log grid with 511 points:
    l: 0  eig: -0.873214  rCut: 1.25
    l: 0  eig: 0.000000  rCut: 1.25
    l: 1  eig: -0.330058  rCut: 1.25
    l: 1  eig: 0.000000  rCut: 1.25
    l: 2  eig: 1.000000  rCut: 1.25
  Partial core density with radius 0.7
  Transforming core density to a uniform radial grid of dG=0.02 with 1265 points.
  Transforming local potential to a uniform radial grid of dG=0.02 with 1265 points.
  Transforming nonlocal projectors to a uniform radial grid of dG=0.02 with 432 points.
  Transforming density augmentations to a uniform radial grid of dG=0.02 with 1265 points.
  Transforming atomic orbitals to a uniform radial grid of dG=0.02 with 432 points.
  Core radius for overlap checks: 1.25 bohrs.

Reading pseudopotential file '/home/jfm343/JDFTXDIR/build/pseudopotentials/GBRV/c_pbesol.uspp':
  Title: C.  Created by USPP 7.3.6 on 3-2-2014
  Reference state energy: -5.383511.  4 valence electrons in orbitals:
    |200>  occupation: 2  eigenvalue: -0.501126
    |210>  occupation: 2  eigenvalue: -0.192448
  lMax: 1  lLocal: 2  QijEcut: 5
  4 projectors sampled on a log grid with 503 points:
    l: 0  eig: -0.501126  rCut: 1.3
    l: 0  eig: 0.000000  rCut: 1.3
    l: 1  eig: -0.192448  rCut: 1.3
    l: 1  eig: 0.000000  rCut: 1.3
  Partial core density with radius 1.1
  Transforming core density to a uniform radial grid of dG=0.02 with 1265 points.
  Transforming local potential to a uniform radial grid of dG=0.02 with 1265 points.
  Transforming nonlocal projectors to a uniform radial grid of dG=0.02 with 432 points.
  Transforming density augmentations to a uniform radial grid of dG=0.02 with 1265 points.
  Transforming atomic orbitals to a uniform radial grid of dG=0.02 with 432 points.
  Core radius for overlap checks: 1.30 bohrs.

Reading pseudopotential file '/home/jfm343/JDFTXDIR/build/pseudopotentials/GBRV/h_pbesol.uspp':
  Title: H.  Created by USPP 7.3.6 on 22-9-15
  Reference state energy: -0.449841.  1 valence electrons in orbitals:
    |100>  occupation: 1  eigenvalue: -0.232690
  lMax: 0  lLocal: 1  QijEcut: 6
  2 projectors sampled on a log grid with 395 points:
    l: 0  eig: -0.232690  rCut: 1.2
    l: 0  eig: 1.000000  rCut: 1.2
  Transforming local potential to a uniform radial grid of dG=0.02 with 1265 points.
  Transforming nonlocal projectors to a uniform radial grid of dG=0.02 with 432 points.
  Transforming density augmentations to a uniform radial grid of dG=0.02 with 1265 points.
  Transforming atomic orbitals to a uniform radial grid of dG=0.02 with 432 points.
  Core radius for overlap checks: 1.20 bohrs.

Reading pseudopotential file '/home/jfm343/JDFTXDIR/build/pseudopotentials/GBRV/pt_pbesol.uspp':
  Title: Pt.  Created by USPP 7.3.6 on 22-9-15
  Reference state energy: -104.899005.  16 valence electrons in orbitals:
    |510>  occupation: 6  eigenvalue: -2.158847
    |520>  occupation: 9.5  eigenvalue: -0.336311
    |600>  occupation: 0  eigenvalue: -0.320324
    |610>  occupation: 0  eigenvalue: -0.119800
  lMax: 2  lLocal: 3  QijEcut: 5.5
  6 projectors sampled on a log grid with 745 points:
    l: 0  eig: -0.320324  rCut: 2.45
    l: 0  eig: 1.500000  rCut: 2.45
    l: 1  eig: -2.158847  rCut: 1.6
    l: 1  eig: -0.119800  rCut: 1.6
    l: 2  eig: -0.500000  rCut: 1.6
    l: 2  eig: -0.336311  rCut: 1.6
  Partial core density with radius 1.1
  Transforming core density to a uniform radial grid of dG=0.02 with 1265 points.
  Transforming local potential to a uniform radial grid of dG=0.02 with 1265 points.
  Transforming nonlocal projectors to a uniform radial grid of dG=0.02 with 432 points.
  Transforming density augmentations to a uniform radial grid of dG=0.02 with 1265 points.
  Transforming atomic orbitals to a uniform radial grid of dG=0.02 with 432 points.
  Core radius for overlap checks: 2.45 bohrs.

Initialized 4 species with 23 total atoms.

Folded 1 k-points by 4x4x1 to 16 k-points.

---------- Setting up k-points, bands, fillings ----------
Adding inversion symmetry to k-mesh for non-inversion-symmetric unit cell.
Reduced to 9 k-points under symmetry. 
Computing the number of bands and number of electrons
Reading initial fillings from file 100_0-Vacuum.fillings.
nElectrons: 331.000000   nBands: 249   nStates: 9

----- Setting up reduced wavefunction bases (one per k-point) -----
average nbasis = 19028.688 , ideal nbasis = 19027.765

---------- Setting up ewald sum ----------
Optimum gaussian width for ewald sums = 3.892289 bohr.
Real space sum over 693 unit cells with max indices [  4  5  3  ]
Reciprocal space sum over 5655 terms with max indices [  7  6  14  ]

---------- Allocating electronic variables ----------
Initializing wave functions:  reading from '100_0-Vacuum.wfns'
----- createFluidSolver() ----- (Fluid-side solver setup)
   Initializing fluid molecule 'H2O'
     Initializing site 'O'
       Electron density: proportional to exp(-r/0.36935)*erfc((r-0.51523)/0.36823) with norm 6.826
       Charge density: gaussian nuclear width 0.478731 with net site charge 0.826
       Polarizability: cuspless exponential with width 0.32 and norm 3.73
       Hard sphere radius: 2.57003 bohrs
       Positions in reference frame:
         [ +0.000000 +0.000000 +0.000000 ]
     Initializing site 'H'
       Electron density: proportional to exp(-r/0.34641)*erfc((r-0)/0.390882) with norm 0.587
       Charge density: gaussian nuclear width 0.377945 with net site charge -0.413
       Polarizability: cuspless exponential with width 0.39 and norm 3.3
       Positions in reference frame:
         [ +0.000000 -1.441945 +1.122523 ]
         [ +0.000000 +1.441945 +1.122523 ]
     Net charge: 0   dipole magnitude: 0.927204
     Initializing spherical shell mfKernel with radius 2.61727 Bohr
     deltaS corrections:
       site 'O': -7.54299
       site 'H': -6.83917
   Initializing fluid molecule 'Na+'
     Initializing site 'Na'
       Electron density: proportional to exp(-r/0.19682)*erfc((r-0.71491)/0.41314) with norm 8.1383
       Charge density: gaussian nuclear width 0.365347 with net site charge -1
       Hard sphere radius: 1.86327 bohrs
       Positions in reference frame:
         [ +0.000000 +0.000000 +0.000000 ]
     Net charge: -1   dipole magnitude: 0
     Initializing gaussian mfKernel with width: 1.55004 Bohr
     deltaS corrections:
       site 'Na': -22.3555
   Initializing fluid molecule 'ClO4-'
     Initializing site 'Cl'
       Electron density: proportional to exp(-r/0.48793)*erfc((r-0.93371)/0.45657) with norm 6.2308
       Charge density: gaussian nuclear width 0.55117 with net site charge -0.7692
       Hard sphere radius: 4.42196 bohrs
       Positions in reference frame:
         [ +0.000000 +0.000000 +0.000000 ]
     Initializing site 'O'
       Electron density: proportional to exp(-r/0.36013)*erfc((r-0.51636)/0.37371) with norm 6.4423
       Charge density: gaussian nuclear width 0.478731 with net site charge 0.4423
       Positions in reference frame:
         [ +1.705286 +1.705286 +1.705286 ]
         [ +1.705286 -1.705286 -1.705286 ]
         [ -1.705286 +1.705286 -1.705286 ]
         [ -1.705286 -1.705286 +1.705286 ]
     Net charge: 1   dipole magnitude: 0
     Initializing gaussian mfKernel with width: 3.22033 Bohr
     deltaS corrections:
       site 'Cl': -87.0374
       site 'O': 12.0842

Correction to mu due to finite nuclear width = -0.0737359
   Cavity determined by nc: 0.001 and sigma: 0.6
   Effective cavity tension: 9.5e-06 Eh/bohr^2 to account for cavitation and dispersion.
   Nonlinear dielectric with epsBulk = 78.4 and epsInf = 1.77 with density Nmol = 0.0049383 of dipoles pMol = 0.92466 at T = 298 K.
   Nonlinear ions with screening length = 12.843 bohrs and Z = 1 at T = 298 K.


---- Citations for features of the code used in this run ----

   Software package:
      R. Sundararaman, K. Letchworth-Weaver, K.A. Schwarz, D. Gunceler, Y. Ozhabes and T.A. Arias, 'JDFTx: software for joint density-functional theory', SoftwareX 6, 278 (2017)

   gga-PBEsol exchange-correlation functional:
      J.P. Perdew et al., Phys. Rev. Lett. 100, 136406 (2008)

   Pseudopotentials:
      KF Garrity, JW Bennett, KM Rabe and D Vanderbilt, Comput. Mater. Sci. 81, 446 (2014)

   Linear/nonlinear dielectric/ionic fluid model with effective cavity tension:
      D. Gunceler, K. Letchworth-Weaver, R. Sundararaman, K.A. Schwarz and T.A. Arias, Modelling Simul. Mater. Sci. Eng. 21, 074005 (2013)

   Total energy minimization with Auxiliary Hamiltonian:
      C. Freysoldt, S. Boeck, and J. Neugebauer, Phys. Rev. B 79, 241103(R) (2009)

This list may not be complete. Please suggest additional citations or
report any other bugs at https://github.com/shankar1729/jdftx/issues

Initialization completed successfully at t[s]:     83.80

Initializing state of NonlinearPCM using a similar LinearPCM: 	Linear fluid (dielectric constant: 78.4, screening length: 12.843 Bohr) occupying 0.368180 of unit cell:	Completed after 41 iterations at t[s]:     94.50

-------- Electron <-> Fluid self-consistency loop -----------

---------------------- Fluid Minimization # 1 -----------------------
FluidMinimize: Iter:   0  F: -0.000255384701807  |grad|_K:  2.993e-05  alpha:  1.000e+00
FluidMinimize: Iter:   1  F: -0.000526978319937  |grad|_K:  1.730e-05  alpha:  4.327e-01  linmin:  1.277e-01  cgtest: -2.081e-01  t[s]:     96.39
FluidMinimize: Iter:   2  F: -0.000620566986709  |grad|_K:  1.303e-05  alpha:  4.233e-01  linmin: -2.436e-02  cgtest:  1.672e-01  t[s]:     96.69
FluidMinimize: Iter:   3  F: -0.000682020350895  |grad|_K:  9.634e-06  alpha:  4.014e-01  linmin:  8.132e-04  cgtest: -1.653e-01  t[s]:     97.00
FluidMinimize: Iter:   4  F: -0.000720512736452  |grad|_K:  9.269e-06  alpha:  4.704e-01  linmin:  4.826e-03  cgtest:  3.387e-03  t[s]:     97.29
FluidMinimize: Iter:   5  F: -0.000755716067142  |grad|_K:  8.801e-06  alpha:  4.680e-01  linmin: -1.289e-03  cgtest:  8.660e-03  t[s]:     97.59
FluidMinimize: Iter:   6  F: -0.000784804891627  |grad|_K:  7.273e-06  alpha:  4.248e-01  linmin: -7.215e-03  cgtest: -5.487e-02  t[s]:     97.88
FluidMinimize: Iter:   7  F: -0.000807484531019  |grad|_K:  6.177e-06  alpha:  4.742e-01  linmin: -8.666e-03  cgtest: -1.028e-01  t[s]:     98.18
FluidMinimize: Iter:   8  F: -0.000825228187794  |grad|_K:  6.077e-06  alpha:  5.156e-01  linmin:  1.563e-03  cgtest: -6.031e-02  t[s]:     98.49
FluidMinimize: Iter:   9  F: -0.000842104640682  |grad|_K:  6.020e-06  alpha:  5.189e-01  linmin:  3.907e-05  cgtest:  2.817e-02  t[s]:     98.79
FluidMinimize: Iter:  10  F: -0.000856999660282  |grad|_K:  5.764e-06  alpha:  4.651e-01  linmin: -8.612e-04  cgtest: -1.898e-02  t[s]:     99.09
FluidMinimize: Iter:  11  F: -0.000869039239388  |grad|_K:  5.267e-06  alpha:  4.086e-01  linmin: -5.438e-04  cgtest: -2.222e-02  t[s]:     99.38
FluidMinimize: Iter:  12  F: -0.000880364214848  |grad|_K:  4.983e-06  alpha:  4.606e-01  linmin:  4.071e-04  cgtest: -1.379e-02  t[s]:     99.67
FluidMinimize: Iter:  13  F: -0.000892348011597  |grad|_K:  5.541e-06  alpha:  5.450e-01  linmin: -2.505e-03  cgtest: -2.729e-03  t[s]:     99.97
FluidMinimize: Iter:  14  F: -0.000903576637907  |grad|_K:  2.122e-05  alpha:  8.315e-01  linmin:  1.184e-01  cgtest: -2.159e-01  t[s]:    100.27
FluidMinimize: 	Bad step direction: g.d > 0.
FluidMinimize: 	Undoing step.
FluidMinimize: 	Step failed: resetting search direction.
FluidMinimize: Iter:  15  F: -0.000903576637907  |grad|_K:  2.122e-05  alpha:  0.000e+00
FluidMinimize: 	Step increased F by 2.743924e-05, reducing alpha to 2.715044e-02.
FluidMinimize: Iter:  16  F: -0.000918245121936  |grad|_K:  1.093e-05  alpha:  2.715e-02  linmin: -1.190e-01  cgtest:  8.017e-01  t[s]:    100.89
FluidMinimize: Encountered beta<0, resetting CG.
FluidMinimize: 	Predicted alpha/alphaT>3.000000, increasing alphaT to 8.145133e-02.
FluidMinimize: Iter:  17  F: -0.000939783592346  |grad|_K:  1.063e-05  alpha:  1.913e-01  linmin: -5.950e-02  cgtest:  1.199e-01  t[s]:    101.34
FluidMinimize: Iter:  18  F: -0.000959280013674  |grad|_K:  7.831e-06  alpha:  1.088e-01  linmin: -9.891e-02  cgtest:  3.234e-01  t[s]:    101.64
FluidMinimize: 	Predicted alpha/alphaT>3.000000, increasing alphaT to 3.264737e-01.
FluidMinimize: Iter:  19  F: -0.000972534676371  |grad|_K:  1.114e-05  alpha:  1.160e-01  linmin: -1.558e-01  cgtest:  6.169e-01  t[s]:    102.08
FluidMinimize: Iter:  20  F: -0.000990173667622  |grad|_K:  1.456e-05  alpha:  1.137e-01  linmin: -7.623e-02  cgtest: -3.330e-01  t[s]:    102.39
FluidMinimize: Iter:  21  F: -0.000996755540213  |grad|_K:  1.257e-05  alpha:  1.359e-02  linmin: -3.144e-01  cgtest:  9.869e-01  t[s]:    102.69
FluidMinimize: Encountered beta<0, resetting CG.
FluidMinimize: Iter:  22  F: -0.001001166260690  |grad|_K:  1.277e-05  alpha:  4.034e-02  linmin:  4.841e-02  cgtest: -3.937e-01  t[s]:    103.00
FluidMinimize: Converged (|Delta F|<1.000000e-05 for 2 iters).

Fluid minimization # 1 changed total free energy by -7.457816e-04 at t[s]:    103.16

-------------------- Electronic Minimization # 1 ---------------------
	FillingsUpdate:  mu: -0.189673335  nElectrons: 331.000000
ElecMinimize: Iter:   0  F: -1802.711690259574198  |grad|_K:  5.445e-06  alpha:  1.000e+00
	FillingsUpdate:  mu: -0.189114097  nElectrons: 331.000000
	SubspaceRotationAdjust: set factor to 0.543
ElecMinimize: Iter:   1  F: -1802.711757816831096  |grad|_K:  7.327e-06  alpha:  5.291e-02  linmin: -5.588e-07  t[s]:    617.32
	FillingsUpdate:  mu: -0.189061892  nElectrons: 331.000000
	SubspaceRotationAdjust: set factor to 0.473
ElecMinimize: Iter:   2  F: -1802.712046738829940  |grad|_K:  3.000e-06  alpha:  1.241e-01  linmin: -1.236e-06  t[s]:    975.21
	FillingsUpdate:  mu: -0.189104623  nElectrons: 331.000000
	SubspaceRotationAdjust: set factor to 0.366
ElecMinimize: Iter:   3  F: -1802.712166084185128  |grad|_K:  2.072e-06  alpha:  3.044e-01  linmin: -2.718e-07  t[s]:   1329.53
	FillingsUpdate:  mu: -0.187859064  nElectrons: 331.000000
	SubspaceRotationAdjust: set factor to 0.287
ElecMinimize: Iter:   4  F: -1802.712211943189914  |grad|_K:  1.254e-06  alpha:  2.483e-01  linmin: -1.971e-08  t[s]:   1689.56
	FillingsUpdate:  mu: -0.188304636  nElectrons: 331.000000
	SubspaceRotationAdjust: set factor to 0.29
ElecMinimize: Iter:   5  F: -1802.712233660922038  |grad|_K:  8.207e-07  alpha:  3.218e-01  linmin: -4.996e-08  t[s]:   2047.77
	FillingsUpdate:  mu: -0.188401619  nElectrons: 331.000000
	SubspaceRotationAdjust: set factor to 0.199
ElecMinimize: Iter:   6  F: -1802.712238647098502  |grad|_K:  8.845e-07  alpha:  1.724e-01  linmin:  4.854e-09  t[s]:   2404.07
	FillingsUpdate:  mu: -0.188198641  nElectrons: 331.000000
	SubspaceRotationAdjust: set factor to 0.153
ElecMinimize: Iter:   7  F: -1802.712243980739231  |grad|_K:  4.115e-07  alpha:  1.589e-01  linmin: -3.104e-09  t[s]:   2763.66
ElecMinimize: Converged (|Delta F|<1.000000e-05 for 2 iters).
Setting wave functions to eigenvectors of Hamiltonian

Electronic minimization # 1 changed total free energy by -5.537212e-04 at t[s]:   2779.61

---------------------- Fluid Minimization # 2 -----------------------
FluidMinimize: Iter:   0  F: -0.002177101139005  |grad|_K:  2.153e-05  alpha:  1.000e+00
FluidMinimize: Iter:   1  F: -0.002177144697444  |grad|_K:  2.152e-05  alpha:  5.313e-05  linmin: -1.401e-01  cgtest:  1.000e+00  t[s]:   2780.09
FluidMinimize: Encountered beta<0, resetting CG.
FluidMinimize: 	Predicted alpha/alphaT>3.000000, increasing alphaT to 1.593925e-04.
FluidMinimize: 	Predicted alpha/alphaT>3.000000, increasing alphaT to 4.781776e-04.
FluidMinimize: 	Predicted alpha/alphaT>3.000000, increasing alphaT to 1.434533e-03.
FluidMinimize: 	Predicted alpha/alphaT>3.000000, increasing alphaT to 4.303598e-03.
FluidMinimize: 	Predicted alpha/alphaT>3.000000, increasing alphaT to 1.291079e-02.
FluidMinimize: 	Predicted alpha/alphaT>3.000000, increasing alphaT to 3.873238e-02.
FluidMinimize: Iter:   2  F: -0.002197624567020  |grad|_K:  7.300e-05  alpha:  8.627e-02  linmin:  4.350e-02  cgtest: -2.149e-01  t[s]:   2781.07
FluidMinimize: Iter:   3  F: -0.002197646684861  |grad|_K:  7.304e-05  alpha:  1.047e-05  linmin: -1.582e-02  cgtest:  1.000e+00  t[s]:   2781.37
FluidMinimize: 	Predicted alpha/alphaT>3.000000, increasing alphaT to 3.140227e-05.
FluidMinimize: 	Predicted alpha/alphaT>3.000000, increasing alphaT to 9.420680e-05.
FluidMinimize: 	Predicted alpha/alphaT>3.000000, increasing alphaT to 2.826204e-04.
FluidMinimize: 	Predicted alpha/alphaT>3.000000, increasing alphaT to 8.478612e-04.
FluidMinimize: 	Predicted alpha/alphaT>3.000000, increasing alphaT to 2.543584e-03.
FluidMinimize: Iter:   4  F: -0.002227133499868  |grad|_K:  1.716e-05  alpha:  5.707e-03  linmin: -1.049e-01  cgtest:  7.421e-01  t[s]:   2782.33
FluidMinimize: Encountered beta<0, resetting CG.
FluidMinimize: 	Predicted alpha/alphaT>3.000000, increasing alphaT to 1.712227e-02.
FluidMinimize: Iter:   5  F: -0.002234356196452  |grad|_K:  1.917e-05  alpha:  2.644e-02  linmin: -5.495e-02  cgtest:  1.039e-01  t[s]:   2782.78
FluidMinimize: 	Predicted alpha/alphaT>3.000000, increasing alphaT to 7.930732e-02.
FluidMinimize: Iter:   6  F: -0.002261295165005  |grad|_K:  7.153e-05  alpha:  1.192e-01  linmin:  7.245e-02  cgtest: -7.040e-01  t[s]:   2783.21
FluidMinimize: 	Bad step direction: g.d > 0.
FluidMinimize: 	Undoing step.
FluidMinimize: 	Step failed: resetting search direction.
FluidMinimize: Iter:   7  F: -0.002261295165005  |grad|_K:  7.153e-05  alpha:  0.000e+00
FluidMinimize: 	Step increased F by 1.338838e-04, reducing alpha to 4.651007e-03.
FluidMinimize: Iter:   8  F: -0.002286107663835  |grad|_K:  1.930e-05  alpha:  4.651e-03  linmin: -1.432e-01  cgtest:  9.282e-01  t[s]:   2783.86
FluidMinimize: Encountered beta<0, resetting CG.
FluidMinimize: Iter:   9  F: -0.002290139282291  |grad|_K:  1.006e-05  alpha:  1.147e-02  linmin: -3.529e-02  cgtest:  2.300e-01  t[s]:   2784.18
FluidMinimize: 	Predicted alpha/alphaT>3.000000, increasing alphaT to 3.439502e-02.
FluidMinimize: 	Predicted alpha/alphaT>3.000000, increasing alphaT to 1.031851e-01.
FluidMinimize: Iter:  10  F: -0.002300764860453  |grad|_K:  2.759e-05  alpha:  1.159e-01  linmin:  3.541e-02  cgtest: -2.434e-01  t[s]:   2784.75
FluidMinimize: Iter:  11  F: -0.002304817565497  |grad|_K:  2.830e-05  alpha:  4.656e-03  linmin: -7.323e-02  cgtest:  9.943e-01  t[s]:   2785.06
FluidMinimize: Iter:  12  F: -0.002311905981875  |grad|_K:  1.100e-05  alpha:  9.265e-03  linmin: -5.107e-02  cgtest:  2.665e-01  t[s]:   2785.36
FluidMinimize: Converged (|Delta F|<7.457816e-06 for 2 iters).

Fluid minimization # 2 changed total free energy by -1.348048e-04 at t[s]:   2785.52

-------------------- Electronic Minimization # 2 ---------------------
	FillingsUpdate:  mu: -0.190167667  nElectrons: 331.000000
ElecMinimize: Iter:   0  F: -1802.712150981546301  |grad|_K:  5.717e-06  alpha:  1.000e+00
	FillingsUpdate:  mu: -0.188720787  nElectrons: 331.000000
	SubspaceRotationAdjust: set factor to 0.0945
ElecMinimize: Iter:   1  F: -1802.712328009428120  |grad|_K:  2.097e-06  alpha:  1.249e-01  linmin: -2.297e-03  t[s]:   3291.11
	FillingsUpdate:  mu: -0.188109875  nElectrons: 331.000000
	SubspaceRotationAdjust: set factor to 0.14
ElecMinimize: Iter:   2  F: -1802.712379464035394  |grad|_K:  7.299e-07  alpha:  2.699e-01  linmin: -2.746e-05  t[s]:   3653.18
	FillingsUpdate:  mu: -0.188392429  nElectrons: 331.000000
	SubspaceRotationAdjust: set factor to 0.166
ElecMinimize: Iter:   3  F: -1802.712389350715284  |grad|_K:  4.684e-07  alpha:  4.322e-01  linmin: -6.903e-06  t[s]:   4011.55
	FillingsUpdate:  mu: -0.188264997  nElectrons: 331.000000
	SubspaceRotationAdjust: set factor to 0.114
ElecMinimize: Iter:   4  F: -1802.712392861084709  |grad|_K:  5.082e-07  alpha:  3.728e-01  linmin:  3.561e-06  t[s]:   4372.49
	FillingsUpdate:  mu: -0.188280919  nElectrons: 331.000000
	SubspaceRotationAdjust: set factor to 0.0876
ElecMinimize: Iter:   5  F: -1802.712395326362639  |grad|_K:  2.995e-07  alpha:  2.225e-01  linmin:  9.347e-07  t[s]:   4737.03
ElecMinimize: Converged (|Delta F|<7.457816e-06 for 2 iters).
Setting wave functions to eigenvectors of Hamiltonian

Electronic minimization # 2 changed total free energy by -1.654078e-05 at t[s]:   4753.00

---------------------- Fluid Minimization # 3 -----------------------
FluidMinimize: Iter:   0  F: -0.002439382491958  |grad|_K:  1.655e-05  alpha:  1.000e+00
FluidMinimize: Iter:   1  F: -0.002439382606610  |grad|_K:  1.655e-05  alpha:  2.367e-07  linmin: -1.604e-01  cgtest:  1.000e+00  t[s]:   4753.49
FluidMinimize: Encountered beta<0, resetting CG.
FluidMinimize: 	Predicted alpha/alphaT>3.000000, increasing alphaT to 7.099907e-07.
FluidMinimize: 	Predicted alpha/alphaT>3.000000, increasing alphaT to 2.129972e-06.
FluidMinimize: 	Predicted alpha/alphaT>3.000000, increasing alphaT to 6.389917e-06.
FluidMinimize: 	Predicted alpha/alphaT>3.000000, increasing alphaT to 1.916975e-05.
FluidMinimize: 	Predicted alpha/alphaT>3.000000, increasing alphaT to 5.750925e-05.
FluidMinimize: 	Predicted alpha/alphaT>3.000000, increasing alphaT to 1.725277e-04.
FluidMinimize: Iter:   2  F: -0.002444057613622  |grad|_K:  2.005e-05  alpha:  2.319e-02  linmin:  2.881e-02  cgtest: -2.147e-01  t[s]:   4754.46
FluidMinimize: Iter:   3  F: -0.002448947990838  |grad|_K:  2.872e-05  alpha:  1.930e-02  linmin:  3.159e-03  cgtest:  8.208e-01  t[s]:   4754.77
FluidMinimize: Iter:   4  F: -0.002457917338818  |grad|_K:  1.370e-05  alpha:  1.338e-02  linmin: -6.908e-03  cgtest: -2.265e-01  t[s]:   4755.08
FluidMinimize: 	Predicted alpha/alphaT>3.000000, increasing alphaT to 4.013208e-02.
FluidMinimize: Iter:   5  F: -0.002468110252150  |grad|_K:  2.683e-05  alpha:  8.073e-02  linmin:  7.059e-02  cgtest: -4.948e-01  t[s]:   4755.51
FluidMinimize: Iter:   6  F: -0.002468530606721  |grad|_K:  2.798e-05  alpha:  1.295e-03  linmin: -2.881e-02  cgtest:  9.996e-01  t[s]:   4755.81
FluidMinimize: 	Predicted alpha/alphaT>3.000000, increasing alphaT to 3.885806e-03.
FluidMinimize: Iter:   7  F: -0.002477139922254  |grad|_K:  1.251e-05  alpha:  1.115e-02  linmin: -9.213e-02  cgtest:  3.574e-01  t[s]:   4756.23
FluidMinimize: Iter:   8  F: -0.002480665015851  |grad|_K:  1.402e-05  alpha:  2.723e-02  linmin:  4.015e-02  cgtest: -2.123e-01  t[s]:   4756.53
FluidMinimize: Iter:   9  F: -0.002485072757444  |grad|_K:  1.772e-05  alpha:  3.233e-02  linmin: -6.558e-03  cgtest:  7.204e-01  t[s]:   4756.83
FluidMinimize: Iter:  10  F: -0.002490410434636  |grad|_K:  1.744e-05  alpha:  2.052e-02  linmin:  2.141e-03  cgtest: -8.220e-02  t[s]:   4757.14
FluidMinimize: Iter:  11  F: -0.002498389344428  |grad|_K:  2.188e-05  alpha:  3.858e-02  linmin:  9.503e-02  cgtest: -4.881e-01  t[s]:   4757.43
FluidMinimize: Iter:  12  F: -0.002499230515020  |grad|_K:  2.541e-05  alpha:  4.223e-03  linmin: -2.268e-02  cgtest:  9.951e-01  t[s]:   4757.74
FluidMinimize: Iter:  13  F: -0.002507265451845  |grad|_K:  1.306e-05  alpha:  1.253e-02  linmin: -1.156e-01  cgtest:  1.811e-01  t[s]:   4758.04
FluidMinimize: Iter:  14  F: -0.002510966464787  |grad|_K:  1.148e-05  alpha:  2.413e-02  linmin:  3.665e-02  cgtest: -3.973e-01  t[s]:   4758.35
FluidMinimize: Iter:  15  F: -0.002512999093510  |grad|_K:  1.627e-05  alpha:  2.462e-02  linmin:  1.545e-03  cgtest:  8.044e-01  t[s]:   4758.65
FluidMinimize: Iter:  16  F: -0.002517429069794  |grad|_K:  1.422e-05  alpha:  1.953e-02  linmin: -1.160e-02  cgtest: -9.391e-02  t[s]:   4758.96
FluidMinimize: Iter:  17  F: -0.002523425461433  |grad|_K:  1.572e-05  alpha:  3.732e-02  linmin:  5.153e-02  cgtest: -4.172e-01  t[s]:   4759.26
FluidMinimize: Iter:  18  F: -0.002528271347758  |grad|_K:  2.929e-05  alpha:  3.545e-02  linmin:  1.123e-02  cgtest:  9.245e-01  t[s]:   4759.57
FluidMinimize: Iter:  19  F: -0.002539997665600  |grad|_K:  1.601e-05  alpha:  1.928e-02  linmin:  1.308e-02  cgtest: -5.949e-02  t[s]:   4759.86
FluidMinimize: Iter:  20  F: -0.002545319924181  |grad|_K:  1.396e-05  alpha:  2.584e-02  linmin:  2.142e-02  cgtest: -1.245e-01  t[s]:   4760.18
FluidMinimize: Iter:  21  F: -0.002552246279584  |grad|_K:  1.209e-05  alpha:  4.420e-02  linmin: -2.002e-02  cgtest:  4.777e-01  t[s]:   4760.49
FluidMinimize: Iter:  22  F: -0.002557226331627  |grad|_K:  9.305e-06  alpha:  3.679e-02  linmin: -1.795e-03  cgtest: -1.089e-01  t[s]:   4760.80
FluidMinimize: Iter:  23  F: -0.002561354613056  |grad|_K:  1.906e-05  alpha:  5.610e-02  linmin:  1.240e-02  cgtest:  5.817e-02  t[s]:   4761.10
FluidMinimize: Iter:  24  F: -0.002567947243793  |grad|_K:  1.629e-05  alpha:  2.526e-02  linmin:  5.442e-03  cgtest:  6.646e-01  t[s]:   4761.40
FluidMinimize: Iter:  25  F: -0.002571864822202  |grad|_K:  1.270e-05  alpha:  1.745e-02  linmin: -1.382e-03  cgtest: -1.097e-02  t[s]:   4761.70
FluidMinimize: Iter:  26  F: -0.002576228854064  |grad|_K:  9.862e-06  alpha:  3.468e-02  linmin:  1.202e-01  cgtest: -5.500e-01  t[s]:   4762.01
FluidMinimize: Iter:  27  F: -0.002577659557416  |grad|_K:  1.229e-05  alpha:  2.994e-02  linmin: -1.133e-03  cgtest:  8.338e-01  t[s]:   4762.30
FluidMinimize: Iter:  28  F: -0.002581780573207  |grad|_K:  1.371e-05  alpha:  3.070e-02  linmin: -3.925e-02  cgtest:  2.034e-03  t[s]:   4762.61
FluidMinimize: Iter:  29  F: -0.002585119943686  |grad|_K:  6.068e-06  alpha:  1.748e-02  linmin: -4.669e-03  cgtest: -1.449e-01  t[s]:   4762.91
FluidMinimize: 	Predicted alpha/alphaT>3.000000, increasing alphaT to 5.245172e-02.
FluidMinimize: 	Predicted alpha/alphaT>3.000000, increasing alphaT to 1.573552e-01.
FluidMinimize: Iter:  30  F: -0.002592608913097  |grad|_K:  2.098e-05  alpha:  2.321e-01  linmin:  2.120e-02  cgtest:  1.997e-01  t[s]:   4763.49
FluidMinimize: Iter:  31  F: -0.002593071244303  |grad|_K:  2.016e-05  alpha:  6.891e-04  linmin: -1.491e-01  cgtest:  9.996e-01  t[s]:   4763.78
FluidMinimize: Encountered beta<0, resetting CG.
FluidMinimize: 	Predicted alpha/alphaT>3.000000, increasing alphaT to 2.067234e-03.
FluidMinimize: 	Predicted alpha/alphaT>3.000000, increasing alphaT to 6.201702e-03.
FluidMinimize: Iter:  32  F: -0.002596421411115  |grad|_K:  7.441e-06  alpha:  9.106e-03  linmin: -2.641e-02  cgtest:  1.606e-01  t[s]:   4764.38
FluidMinimize: 	Predicted alpha/alphaT>3.000000, increasing alphaT to 2.731669e-02.
FluidMinimize: Iter:  33  F: -0.002598211078689  |grad|_K:  6.727e-06  alpha:  3.632e-02  linmin:  1.931e-02  cgtest: -1.674e-01  t[s]:   4764.80
FluidMinimize: Iter:  34  F: -0.002599472470130  |grad|_K:  7.485e-06  alpha:  3.511e-02  linmin: -1.130e-02  cgtest:  2.290e-01  t[s]:   4765.11
FluidMinimize: Iter:  35  F: -0.002601298389594  |grad|_K:  8.475e-06  alpha:  3.588e-02  linmin:  7.859e-03  cgtest: -1.836e-01  t[s]:   4765.40
FluidMinimize: Iter:  36  F: -0.002605360341278  |grad|_K:  1.253e-05  alpha:  6.521e-02  linmin: -1.498e-02  cgtest:  3.119e-01  t[s]:   4765.71
FluidMinimize: Iter:  37  F: -0.002612478858629  |grad|_K:  1.120e-05  alpha:  4.653e-02  linmin:  3.129e-04  cgtest: -7.523e-02  t[s]:   4766.00
FluidMinimize: Iter:  38  F: -0.002616315048187  |grad|_K:  1.318e-05  alpha:  3.529e-02  linmin: -1.977e-03  cgtest:  5.612e-02  t[s]:   4766.31
FluidMinimize: Iter:  39  F: -0.002621256027169  |grad|_K:  1.165e-05  alpha:  3.111e-02  linmin:  6.863e-03  cgtest:  7.343e-02  t[s]:   4766.61
FluidMinimize: Iter:  40  F: -0.002625710668824  |grad|_K:  1.178e-05  alpha:  3.908e-02  linmin: -1.943e-03  cgtest:  2.116e-01  t[s]:   4766.92
FluidMinimize: Iter:  41  F: -0.002630751513097  |grad|_K:  1.460e-05  alpha:  4.057e-02  linmin:  7.638e-04  cgtest: -3.274e-02  t[s]:   4767.22
FluidMinimize: Iter:  42  F: -0.002635005784042  |grad|_K:  1.073e-05  alpha:  2.429e-02  linmin:  2.072e-03  cgtest: -1.992e-01  t[s]:   4767.54
FluidMinimize: Iter:  43  F: -0.002639276364600  |grad|_K:  1.236e-05  alpha:  4.670e-02  linmin:  1.869e-02  cgtest: -9.612e-02  t[s]:   4767.83
FluidMinimize: Iter:  44  F: -0.002641391592549  |grad|_K:  1.010e-05  alpha:  1.904e-02  linmin: -2.149e-03  cgtest:  5.725e-01  t[s]:   4768.14
FluidMinimize: 	Predicted alpha/alphaT>3.000000, increasing alphaT to 5.710665e-02.
FluidMinimize: Iter:  45  F: -0.002648361939091  |grad|_K:  1.015e-05  alpha:  7.596e-02  linmin: -9.560e-03  cgtest: -5.895e-02  t[s]:   4768.57
FluidMinimize: Iter:  46  F: -0.002655453759920  |grad|_K:  1.125e-05  alpha:  7.534e-02  linmin:  3.385e-03  cgtest: -1.216e-01  t[s]:   4768.89
FluidMinimize: Iter:  47  F: -0.002659330032794  |grad|_K:  1.324e-05  alpha:  3.175e-02  linmin: -9.541e-03  cgtest:  1.728e-01  t[s]:   4769.19
FluidMinimize: Iter:  48  F: -0.002663538620158  |grad|_K:  1.099e-05  alpha:  2.602e-02  linmin: -5.827e-03  cgtest: -1.393e-01  t[s]:   4769.51
FluidMinimize: Iter:  49  F: -0.002669549310829  |grad|_K:  1.394e-05  alpha:  5.967e-02  linmin:  2.905e-02  cgtest: -2.222e-01  t[s]:   4769.80
FluidMinimize: Iter:  50  F: -0.002672225258200  |grad|_K:  1.165e-05  alpha:  2.012e-02  linmin:  7.000e-04  cgtest:  4.571e-01  t[s]:   4770.11
FluidMinimize: Iter:  51  F: -0.002679526124889  |grad|_K:  8.541e-06  alpha:  5.807e-02  linmin: -2.240e-02  cgtest: -1.979e-02  t[s]:   4770.40
FluidMinimize: Iter:  52  F: -0.002681793375743  |grad|_K:  1.121e-05  alpha:  3.409e-02  linmin:  2.535e-03  cgtest: -1.302e-01  t[s]:   4770.72
FluidMinimize: Iter:  53  F: -0.002685577944477  |grad|_K:  1.278e-05  alpha:  3.461e-02  linmin:  6.214e-03  cgtest:  8.604e-02  t[s]:   4771.01
FluidMinimize: Iter:  54  F: -0.002691722381183  |grad|_K:  9.097e-06  alpha:  4.354e-02  linmin: -8.574e-03  cgtest:  2.562e-01  t[s]:   4771.32
FluidMinimize: Iter:  55  F: -0.002693589742747  |grad|_K:  1.152e-05  alpha:  2.605e-02  linmin:  2.702e-03  cgtest: -3.693e-02  t[s]:   4771.62
FluidMinimize: Iter:  56  F: -0.002697808317545  |grad|_K:  9.850e-06  alpha:  3.806e-02  linmin:  1.337e-02  cgtest: -6.036e-03  t[s]:   4771.93
FluidMinimize: Iter:  57  F: -0.002702358677360  |grad|_K:  1.070e-05  alpha:  6.101e-02  linmin:  3.654e-03  cgtest:  3.878e-01  t[s]:   4772.23
FluidMinimize: Iter:  58  F: -0.002703989900093  |grad|_K:  1.030e-05  alpha:  1.854e-02  linmin:  1.499e-02  cgtest: -1.325e-01  t[s]:   4772.54
FluidMinimize: 	Predicted alpha/alphaT>3.000000, increasing alphaT to 5.563497e-02.
FluidMinimize: Iter:  59  F: -0.002708727913257  |grad|_K:  6.874e-06  alpha:  5.615e-02  linmin:  3.264e-03  cgtest:  1.282e-01  t[s]:   4772.96
FluidMinimize: Iter:  60  F: -0.002711798162842  |grad|_K:  1.161e-05  alpha:  7.564e-02  linmin:  7.782e-03  cgtest: -3.759e-02  t[s]:   4773.28
FluidMinimize: Iter:  61  F: -0.002713395370076  |grad|_K:  8.169e-06  alpha:  1.680e-02  linmin:  1.830e-02  cgtest:  4.297e-02  t[s]:   4773.58
FluidMinimize: 	Predicted alpha/alphaT>3.000000, increasing alphaT to 5.041395e-02.
FluidMinimize: Iter:  62  F: -0.002716052367828  |grad|_K:  8.067e-06  alpha:  4.998e-02  linmin:  9.894e-03  cgtest:  4.824e-02  t[s]:   4774.04
FluidMinimize: Iter:  63  F: -0.002719951411893  |grad|_K:  9.513e-06  alpha:  6.922e-02  linmin: -1.038e-02  cgtest: -2.840e-02  t[s]:   4774.33
FluidMinimize: Iter:  64  F: -0.002721653521185  |grad|_K:  1.060e-05  alpha:  2.389e-02  linmin:  2.841e-02  cgtest: -1.997e-01  t[s]:   4774.64
FluidMinimize: Iter:  65  F: -0.002723909180050  |grad|_K:  7.785e-06  alpha:  2.615e-02  linmin:  6.197e-03  cgtest:  4.502e-01  t[s]:   4774.93
FluidMinimize: Iter:  66  F: -0.002725500244951  |grad|_K:  1.026e-05  alpha:  3.068e-02  linmin:  1.236e-02  cgtest: -3.328e-02  t[s]:   4775.25
FluidMinimize: Iter:  67  F: -0.002727246616228  |grad|_K:  5.646e-06  alpha:  2.069e-02  linmin: -6.532e-04  cgtest:  2.528e-01  t[s]:   4775.54
FluidMinimize: Iter:  68  F: -0.002728292392132  |grad|_K:  7.514e-06  alpha:  3.588e-02  linmin: -2.272e-02  cgtest:  4.532e-02  t[s]:   4775.85
FluidMinimize: Iter:  69  F: -0.002729352115864  |grad|_K:  4.923e-06  alpha:  1.921e-02  linmin: -2.006e-03  cgtest: -1.822e-01  t[s]:   4776.15
FluidMinimize: Converged (|Delta F|<1.348048e-06 for 2 iters).

Fluid minimization # 3 changed total free energy by -2.899696e-04 at t[s]:   4776.31

-------------------- Electronic Minimization # 3 ---------------------
	FillingsUpdate:  mu: -0.186264188  nElectrons: 331.000000
ElecMinimize: Iter:   0  F: -1802.712555606668957  |grad|_K:  4.568e-06  alpha:  1.000e+00
	FillingsUpdate:  mu: -0.187753214  nElectrons: 331.000000
	SubspaceRotationAdjust: set factor to 0.186
ElecMinimize: Iter:   1  F: -1802.712705962476548  |grad|_K:  6.313e-07  alpha:  1.678e-01  linmin: -1.193e-04  t[s]:   5283.66
	FillingsUpdate:  mu: -0.187547360  nElectrons: 331.000000
	SubspaceRotationAdjust: set factor to 0.227
ElecMinimize: Iter:   2  F: -1802.712713112907295  |grad|_K:  3.626e-07  alpha:  4.179e-01  linmin:  4.833e-06  t[s]:   5645.00
	FillingsUpdate:  mu: -0.187384106  nElectrons: 331.000000
	SubspaceRotationAdjust: set factor to 0.275
ElecMinimize: Iter:   3  F: -1802.712716294994379  |grad|_K:  3.123e-07  alpha:  5.640e-01  linmin: -9.303e-07  t[s]:   6000.94
	FillingsUpdate:  mu: -0.187244903  nElectrons: 331.000000
	SubspaceRotationAdjust: set factor to 0.179
ElecMinimize: Iter:   4  F: -1802.712717974646239  |grad|_K:  4.369e-07  alpha:  4.013e-01  linmin:  2.925e-08  t[s]:   6359.53
	FillingsUpdate:  mu: -0.187288289  nElectrons: 331.000000
	SubspaceRotationAdjust: set factor to 0.124
ElecMinimize: Iter:   5  F: -1802.712718952667501  |grad|_K:  2.343e-07  alpha:  1.194e-01  linmin:  9.871e-07  t[s]:   6714.13
ElecMinimize: 	Predicted alpha/alphaT>3.000000, increasing alphaT to 3.582346e-01.
	FillingsUpdate:  mu: -0.187151017  nElectrons: 331.000000
	SubspaceRotationAdjust: set factor to 0.171
ElecMinimize: Iter:   6  F: -1802.712720199469004  |grad|_K:  1.980e-07  alpha:  5.294e-01  linmin: -9.900e-07  t[s]:   7159.59
ElecMinimize: Converged (|Delta F|<1.348048e-06 for 2 iters).
Setting wave functions to eigenvectors of Hamiltonian

Electronic minimization # 3 changed total free energy by -3.490348e-05 at t[s]:   7175.72

---------------------- Fluid Minimization # 4 -----------------------
FluidMinimize: Iter:   0  F: -0.003067910286139  |grad|_K:  1.816e-05  alpha:  1.000e+00
FluidMinimize: Iter:   1  F: -0.003067910558172  |grad|_K:  1.816e-05  alpha:  4.660e-07  linmin: -1.857e-01  cgtest:  1.000e+00  t[s]:   7176.20
FluidMinimize: Encountered beta<0, resetting CG.
FluidMinimize: 	Predicted alpha/alphaT>3.000000, increasing alphaT to 1.398084e-06.
FluidMinimize: 	Predicted alpha/alphaT>3.000000, increasing alphaT to 4.194251e-06.
FluidMinimize: 	Predicted alpha/alphaT>3.000000, increasing alphaT to 1.258275e-05.
FluidMinimize: 	Predicted alpha/alphaT>3.000000, increasing alphaT to 3.774826e-05.
FluidMinimize: 	Predicted alpha/alphaT>3.000000, increasing alphaT to 1.132448e-04.
FluidMinimize: 	Predicted alpha/alphaT>3.000000, increasing alphaT to 3.397343e-04.
FluidMinimize: Iter:   2  F: -0.003070592931430  |grad|_K:  8.619e-06  alpha:  9.749e-03  linmin:  1.863e-02  cgtest: -1.837e-01  t[s]:   7177.14
FluidMinimize: Converged (|Delta F|<2.899696e-06 for 2 iters).

Fluid minimization # 4 changed total free energy by -2.682645e-06 at t[s]:   7177.30

-------------------- Electronic Minimization # 4 ---------------------
	FillingsUpdate:  mu: -0.187148770  nElectrons: 331.000000
ElecMinimize: Iter:   0  F: -1802.712549496155361  |grad|_K:  6.470e-06  alpha:  1.000e+00
	FillingsUpdate:  mu: -0.188513469  nElectrons: 331.000000
	SubspaceRotationAdjust: set factor to 0.126
ElecMinimize: Iter:   1  F: -1802.712718630518339  |grad|_K:  7.077e-07  alpha:  9.386e-02  linmin: -1.680e-03  t[s]:   7682.29
	FillingsUpdate:  mu: -0.187675145  nElectrons: 331.000000
	SubspaceRotationAdjust: set factor to 0.142
ElecMinimize: Iter:   2  F: -1802.712724234336747  |grad|_K:  2.362e-07  alpha:  2.600e-01  linmin:  5.268e-06  t[s]:   8040.67
	FillingsUpdate:  mu: -0.187639938  nElectrons: 331.000000
	SubspaceRotationAdjust: set factor to 0.142
ElecMinimize: Iter:   3  F: -1802.712725160824220  |grad|_K:  1.381e-07  alpha:  3.869e-01  linmin: -3.869e-07  t[s]:   8402.22
	FillingsUpdate:  mu: -0.187662244  nElectrons: 331.000000
	SubspaceRotationAdjust: set factor to 0.106
ElecMinimize: Iter:   4  F: -1802.712725367652183  |grad|_K:  1.179e-07  alpha:  2.525e-01  linmin:  4.152e-07  t[s]:   8763.91
ElecMinimize: Converged (|Delta F|<2.899696e-06 for 2 iters).
Setting wave functions to eigenvectors of Hamiltonian

Electronic minimization # 4 changed total free energy by -2.485539e-06 at t[s]:   8780.22

Fluid<-->Electron self-consistency loop converged to 1.000000e-05 hartrees after 4 minimization pairs at t[s]:   8780.22.

# Ionic positions in lattice coordinates:
ion O   0.500000000000000   0.304423550890550   0.339153217686786 1
ion C   0.500000000000000   0.488767071287260   0.299562831654448 1
ion H   0.500000000000000   0.678690294196894   0.325238513066737 1
ion Pt  -0.000000000000000   0.000000000000000  -0.166660000000000 0
ion Pt  -0.000000000000000   0.500000000000000  -0.166660000000000 0
ion Pt   0.500000000000000   0.000000000000000  -0.166660000000000 0
ion Pt   0.500000000000000   0.500000000000000  -0.166660000000000 0
ion Pt   0.250000000000000   0.250000000000000  -0.083330000000000 0
ion Pt   0.250000000000000   0.750000000000000  -0.083330000000000 0
ion Pt   0.750000000000000   0.250000000000000  -0.083330000000000 0
ion Pt   0.750000000000000   0.750000000000000  -0.083330000000000 0
ion Pt  -0.000000000000000   0.000536137744999   0.006476089368976 1
ion Pt  -0.000000000000000   0.500679479810856   0.007581745286657 1
ion Pt   0.500000000000000   0.000697155894750   0.008560999731273 1
ion Pt   0.500000000000000   0.500678450930038   0.009300988656817 1
ion Pt   0.246858551198002   0.250747864833470   0.100197588404874 1
ion Pt   0.247080518896339   0.752750981914416   0.100340078604641 1
ion Pt   0.753141448801997   0.250747864833470   0.100197588404874 1
ion Pt   0.752919481103661   0.752750981914416   0.100340078604641 1
ion Pt  -0.000000000000000   0.001225927790808   0.183632543113588 1
ion Pt  -0.000000000000000   0.501508249513453   0.183611157984700 1
ion Pt   0.500000000000000   0.004136562223003   0.181199880352149 1
ion Pt   0.500000000000000   0.503667324653520   0.182430396807134 1


# Forces in Lattice coordinates:
force O   0.000000000000000  -0.057802160165231   0.182749528562660 1
force C   0.000000000000000   0.071397920176363  -0.130731234403001 1
force H   0.000000000000000  -0.031671390682313   0.114878251968615 1
force Pt   0.000000000000000  -0.000534389709413  -0.091269828313986 0
force Pt   0.000000000000000   0.000021275261610  -0.065155856089751 0
force Pt   0.000000000000000  -0.000785932903399  -0.012866090946802 0
force Pt   0.000000000000000   0.000292515176825  -0.053199491265935 0
force Pt   0.030262735570224   0.013387448860116  -0.074729071692014 0
force Pt   0.030664794541794  -0.008002703124520  -0.071317293784251 0
force Pt  -0.030262735570224   0.013387448860116  -0.074729071692014 0
force Pt  -0.030664794541794  -0.008002703124520  -0.071317293784251 0
force Pt   0.000000000000000   0.001731659506435   0.078308261044104 1
force Pt   0.000000000000000   0.000643851802090   0.073738293771126 1
force Pt   0.000000000000000  -0.000254929975955   0.073878629797772 1
force Pt   0.000000000000000   0.003518242615318   0.059607085241815 1
force Pt   0.002263455976300   0.010044462759324  -0.056354707992429 1
force Pt   0.000486969549486  -0.004178348844477  -0.061053033655982 1
force Pt  -0.002263455976300   0.010044462759324  -0.056354707992429 1
force Pt  -0.000486969549486  -0.004178348844477  -0.061053033655982 1
force Pt   0.000000000000000   0.004540564405021   0.107649355408722 1
force Pt   0.000000000000000   0.001520196472611   0.079887972926759 1
force Pt   0.000000000000000   0.000767209699865   0.015422424290223 1
force Pt   0.000000000000000  -0.018774227357466   0.173403557782125 1

# Energy components:
   A_diel =       -0.0031322104269852
   Eewald =     2028.8023614339083451
       EH =     3708.2872066866043497
     Eloc =    -7855.8931926998902782
      Enl =      -17.7528003003386878
      Exc =     -571.9916202144885347
 Exc_core =      324.9288504935375386
       KE =      581.1408030677621355
  MuShift =       -0.0000000000054530
-------------------------------------
     Etot =    -1802.4815237433372204
       TS =        0.2312016243148932
-------------------------------------
        F =    -1802.7127253676521832

IonicMinimize: Iter:   0  F: -1802.712725367652183  |grad|_K:  2.332e-03  t[s]:   8822.88
IonicMinimize: None of the convergence criteria satisfied after 0 iterations.

#--- Lowdin population analysis ---
# oxidation-state O -0.209
# oxidation-state C +0.270
# oxidation-state H +0.260
# oxidation-state Pt +0.069 +0.069 +0.066 +0.064 -0.050 -0.051 -0.050 -0.051 +0.003 +0.001 +0.003 -0.019 -0.048 -0.051 -0.048 -0.051 +0.072 +0.078 +0.060 -0.024


Dumping '100_0-Solvated.ionpos' ... done
Dumping '100_0-Solvated.n' ... done
Dumping '100_0-Solvated.eigStats' ... 
	eMin: -2.142967 at state 0 ( [ +0.000000 +0.000000 +0.000000 ] spin 0 )
	HOMO: -0.187929 at state 0 ( [ +0.000000 +0.000000 +0.000000 ] spin 0 )
	mu  : -0.187662
	LUMO: -0.186812 at state 8 ( [ +0.500000 +0.500000 +0.000000 ] spin 0 )
	eMax: +0.355959 at state 5 ( [ +0.250000 +0.500000 +0.000000 ] spin 0 )
	HOMO-LUMO gap: +0.001118
	Optical gap  : +0.002493 at state 0 ( [ +0.000000 +0.000000 +0.000000 ] spin 0 )
Dumping '100_0-Solvated.Ecomponents' ... done
End date and time: Sat Jun  1 05:41:07 2019  (Duration: 0-2:27:54.08)
Done!
