--------------------------------------------------------------------------
Initialization of PSM library failed.

  Error: PSM is in the finalized state
--------------------------------------------------------------------------
[node2020][[23715,1],0][btl_openib.c:880:mca_btl_openib_add_procs] could not prepare openib device for use
--------------------------------------------------------------------------
The OpenFabrics (openib) BTL failed to initialize while trying to
allocate some locked memory.  This typically can indicate that the
memlock limits are set too low.  For most HPC installations, the
memlock limits should be set to "unlimited".  The failure occured
here:

  Local host:    node2020
  OMPI source:   btl_openib.c:753
  Function:      ompi_free_list_init_ex_new()
  Device:        qib0
  Memlock limit: 65536

You may need to consult with your system administrator to get this
problem fixed.  This FAQ entry on the Open MPI web site may also be
helpful:

    http://www.open-mpi.org/faq/?category=openfabrics#ib-locked-pages
--------------------------------------------------------------------------

*************** JDFTx 1.4.2 (git hash 74b6e54) ***************

Start date and time: Thu May 30 14:29:38 2019
Executable /home/jfm343/JDFTXDIR/build/jdftx with command-line: -i Vacuum.in
Running on hosts (process indices):  node2020.physics.cornell.edu (0)
Divided in process groups (process indices):  0 (0)
Resource initialization completed at t[s]:      0.00
Run totals: 1 processes, 12 threads, 0 GPUs


Input parsed successfully to the following command list (including defaults):

basis kpoint-dependent
coords-type Lattice
core-overlap-check vector
coulomb-interaction Periodic
davidson-band-ratio 1.1
dump End State IonicPositions ElecDensity EigStats Ecomponents
dump-name 100_0-Vacuum.$VAR
elec-cutoff 20 100
elec-eigen-algo Davidson
elec-ex-corr gga-PBEsol
elec-smearing Fermi 0.01
electronic-minimize  \
	dirUpdateScheme      FletcherReeves \
	linminMethod         DirUpdateRecommended \
	nIterations          200 \
	history              15 \
	knormThreshold       0 \
	energyDiffThreshold  1e-08 \
	nEnergyDiff          2 \
	alphaTstart          1 \
	alphaTmin            1e-10 \
	updateTestStepSize   yes \
	alphaTreduceFactor   0.1 \
	alphaTincreaseFactor 3 \
	nAlphaAdjustMax      3 \
	wolfeEnergy          0.0001 \
	wolfeGradient        0.9 \
	fdTest               no
exchange-regularization WignerSeitzTruncated
fluid None
fluid-ex-corr lda-TF lda-PZ
fluid-gummel-loop 10 1.000000e-05
fluid-minimize  \
	dirUpdateScheme      PolakRibiere \
	linminMethod         DirUpdateRecommended \
	nIterations          100 \
	history              15 \
	knormThreshold       0 \
	energyDiffThreshold  0 \
	nEnergyDiff          2 \
	alphaTstart          1 \
	alphaTmin            1e-10 \
	updateTestStepSize   yes \
	alphaTreduceFactor   0.1 \
	alphaTincreaseFactor 3 \
	nAlphaAdjustMax      3 \
	wolfeEnergy          0.0001 \
	wolfeGradient        0.9 \
	fdTest               no
fluid-solvent H2O 55.338 ScalarEOS \
	epsBulk 78.4 \
	pMol 0.92466 \
	epsInf 1.77 \
	Pvap 1.06736e-10 \
	sigmaBulk 4.62e-05 \
	Rvdw 2.61727 \
	Res 1.42 \
	tauNuc 343133 \
	omegaEl 0.55124 \
	gammaEl 0.257245
forces-output-coords Positions
ion O   0.500000000000000   0.311830000000000   0.335450000000000 1
ion C   0.500000000000000   0.500000000000000   0.296010000000000 1
ion H   0.500000000000000   0.681230000000000   0.325060000000000 1
ion Pt   0.000000000000000   0.000000000000000  -0.166660000000000 0
ion Pt   0.000000000000000   0.500000000000000  -0.166660000000000 0
ion Pt   0.500000000000000   0.000000000000000  -0.166660000000000 0
ion Pt   0.500000000000000   0.500000000000000  -0.166660000000000 0
ion Pt   0.250000000000000   0.250000000000000  -0.083330000000000 0
ion Pt   0.250000000000000   0.750000000000000  -0.083330000000000 0
ion Pt   0.750000000000000   0.250000000000000  -0.083330000000000 0
ion Pt   0.750000000000000   0.750000000000000  -0.083330000000000 0
ion Pt   0.000000000000000   0.000000000000000   0.000000000000000 1
ion Pt   0.000000000000000   0.500000000000000   0.000000000000000 1
ion Pt   0.500000000000000   0.000000000000000   0.000000000000000 1
ion Pt   0.500000000000000   0.500000000000000   0.000000000000000 1
ion Pt   0.250000000000000   0.250000000000000   0.083330000000000 1
ion Pt   0.250000000000000   0.750000000000000   0.083330000000000 1
ion Pt   0.750000000000000   0.250000000000000   0.083330000000000 1
ion Pt   0.750000000000000   0.750000000000000   0.083330000000000 1
ion Pt   0.000000000000000   0.000000000000000   0.166660000000000 1
ion Pt   0.000000000000000   0.500000000000000   0.166660000000000 1
ion Pt   0.500000000000000   0.000000000000000   0.166660000000000 1
ion Pt   0.500000000000000   0.500000000000000   0.166660000000000 1
ion-species GBRV/$ID_pbesol.uspp
ion-width 0
ionic-minimize  \
	dirUpdateScheme      L-BFGS \
	linminMethod         DirUpdateRecommended \
	nIterations          8 \
	history              15 \
	knormThreshold       0.0001 \
	energyDiffThreshold  1e-06 \
	nEnergyDiff          2 \
	alphaTstart          1 \
	alphaTmin            1e-10 \
	updateTestStepSize   yes \
	alphaTreduceFactor   0.1 \
	alphaTincreaseFactor 3 \
	nAlphaAdjustMax      3 \
	wolfeEnergy          0.0001 \
	wolfeGradient        0.9 \
	fdTest               no
kpoint   0.000000000000   0.000000000000   0.000000000000  1.00000000000000
kpoint-folding 4 4 1 
latt-move-scale 1 1 1
latt-scale 1 1 1 
lattice Triclinic 13.7988 10.3727 31.1182 90 90 90
lattice-minimize  \
	dirUpdateScheme      L-BFGS \
	linminMethod         DirUpdateRecommended \
	nIterations          0 \
	history              15 \
	knormThreshold       0 \
	energyDiffThreshold  1e-06 \
	nEnergyDiff          2 \
	alphaTstart          1 \
	alphaTmin            1e-10 \
	updateTestStepSize   yes \
	alphaTreduceFactor   0.1 \
	alphaTincreaseFactor 3 \
	nAlphaAdjustMax      3 \
	wolfeEnergy          0.0001 \
	wolfeGradient        0.9 \
	fdTest               no
lcao-params -1 1e-06 0.01
pcm-variant GLSSA13
spintype no-spin
subspace-rotation-factor 1 yes
symmetries automatic
symmetry-threshold 0.0001



---------- Setting up symmetries ----------

Found 8 point-group symmetries of the bravais lattice
Found 2 space-group symmetries with basis
Applied RMS atom displacement 0 bohrs to make symmetries exact.

---------- Initializing the Grid ----------
R = 
[    13.7988          0          0  ]
[          0    10.3727          0  ]
[          0          0    31.1182  ]
unit cell volume = 4453.99
G =
[   0.455343          0          0  ]
[          0   0.605741          0  ]
[          0          0   0.201914  ]
Minimum fftbox size, Smin = [  64  48  144  ]
Chosen fftbox size, S = [  64  48  144  ]

---------- Initializing tighter grid for wavefunction operations ----------
R = 
[    13.7988          0          0  ]
[          0    10.3727          0  ]
[          0          0    31.1182  ]
unit cell volume = 4453.99
G =
[   0.455343          0          0  ]
[          0   0.605741          0  ]
[          0          0   0.201914  ]
Minimum fftbox size, Smin = [  56  44  128  ]
Chosen fftbox size, S = [  56  48  128  ]

---------- Exchange Correlation functional ----------
Initalized PBEsol GGA exchange.
Initalized PBEsol GGA correlation.

---------- Setting up pseudopotentials ----------
Width of ionic core gaussian charges (only for fluid interactions / plotting) set to 0

Reading pseudopotential file '/home/jfm343/JDFTXDIR/build/pseudopotentials/GBRV/o_pbesol.uspp':
  Title: O.  Created by USPP 7.3.6 on 3-2-2014
  Reference state energy: -15.849885.  6 valence electrons in orbitals:
    |200>  occupation: 2  eigenvalue: -0.873214
    |210>  occupation: 4  eigenvalue: -0.330058
  lMax: 2  lLocal: 2  QijEcut: 6
  5 projectors sampled on a log grid with 511 points:
    l: 0  eig: -0.873214  rCut: 1.25
    l: 0  eig: 0.000000  rCut: 1.25
    l: 1  eig: -0.330058  rCut: 1.25
    l: 1  eig: 0.000000  rCut: 1.25
    l: 2  eig: 1.000000  rCut: 1.25
  Partial core density with radius 0.7
  Transforming core density to a uniform radial grid of dG=0.02 with 1265 points.
  Transforming local potential to a uniform radial grid of dG=0.02 with 1265 points.
  Transforming nonlocal projectors to a uniform radial grid of dG=0.02 with 432 points.
  Transforming density augmentations to a uniform radial grid of dG=0.02 with 1265 points.
  Transforming atomic orbitals to a uniform radial grid of dG=0.02 with 432 points.
  Core radius for overlap checks: 1.25 bohrs.

Reading pseudopotential file '/home/jfm343/JDFTXDIR/build/pseudopotentials/GBRV/c_pbesol.uspp':
  Title: C.  Created by USPP 7.3.6 on 3-2-2014
  Reference state energy: -5.383511.  4 valence electrons in orbitals:
    |200>  occupation: 2  eigenvalue: -0.501126
    |210>  occupation: 2  eigenvalue: -0.192448
  lMax: 1  lLocal: 2  QijEcut: 5
  4 projectors sampled on a log grid with 503 points:
    l: 0  eig: -0.501126  rCut: 1.3
    l: 0  eig: 0.000000  rCut: 1.3
    l: 1  eig: -0.192448  rCut: 1.3
    l: 1  eig: 0.000000  rCut: 1.3
  Partial core density with radius 1.1
  Transforming core density to a uniform radial grid of dG=0.02 with 1265 points.
  Transforming local potential to a uniform radial grid of dG=0.02 with 1265 points.
  Transforming nonlocal projectors to a uniform radial grid of dG=0.02 with 432 points.
  Transforming density augmentations to a uniform radial grid of dG=0.02 with 1265 points.
  Transforming atomic orbitals to a uniform radial grid of dG=0.02 with 432 points.
  Core radius for overlap checks: 1.30 bohrs.

Reading pseudopotential file '/home/jfm343/JDFTXDIR/build/pseudopotentials/GBRV/h_pbesol.uspp':
  Title: H.  Created by USPP 7.3.6 on 22-9-15
  Reference state energy: -0.449841.  1 valence electrons in orbitals:
    |100>  occupation: 1  eigenvalue: -0.232690
  lMax: 0  lLocal: 1  QijEcut: 6
  2 projectors sampled on a log grid with 395 points:
    l: 0  eig: -0.232690  rCut: 1.2
    l: 0  eig: 1.000000  rCut: 1.2
  Transforming local potential to a uniform radial grid of dG=0.02 with 1265 points.
  Transforming nonlocal projectors to a uniform radial grid of dG=0.02 with 432 points.
  Transforming density augmentations to a uniform radial grid of dG=0.02 with 1265 points.
  Transforming atomic orbitals to a uniform radial grid of dG=0.02 with 432 points.
  Core radius for overlap checks: 1.20 bohrs.

Reading pseudopotential file '/home/jfm343/JDFTXDIR/build/pseudopotentials/GBRV/pt_pbesol.uspp':
  Title: Pt.  Created by USPP 7.3.6 on 22-9-15
  Reference state energy: -104.899005.  16 valence electrons in orbitals:
    |510>  occupation: 6  eigenvalue: -2.158847
    |520>  occupation: 9.5  eigenvalue: -0.336311
    |600>  occupation: 0  eigenvalue: -0.320324
    |610>  occupation: 0  eigenvalue: -0.119800
  lMax: 2  lLocal: 3  QijEcut: 5.5
  6 projectors sampled on a log grid with 745 points:
    l: 0  eig: -0.320324  rCut: 2.45
    l: 0  eig: 1.500000  rCut: 2.45
    l: 1  eig: -2.158847  rCut: 1.6
    l: 1  eig: -0.119800  rCut: 1.6
    l: 2  eig: -0.500000  rCut: 1.6
    l: 2  eig: -0.336311  rCut: 1.6
  Partial core density with radius 1.1
  Transforming core density to a uniform radial grid of dG=0.02 with 1265 points.
  Transforming local potential to a uniform radial grid of dG=0.02 with 1265 points.
  Transforming nonlocal projectors to a uniform radial grid of dG=0.02 with 432 points.
  Transforming density augmentations to a uniform radial grid of dG=0.02 with 1265 points.
  Transforming atomic orbitals to a uniform radial grid of dG=0.02 with 432 points.
  Core radius for overlap checks: 2.45 bohrs.

Initialized 4 species with 23 total atoms.

Folded 1 k-points by 4x4x1 to 16 k-points.

---------- Setting up k-points, bands, fillings ----------
Adding inversion symmetry to k-mesh for non-inversion-symmetric unit cell.
Reduced to 9 k-points under symmetry. 
Computing the number of bands and number of electrons
Calculating initial fillings.
nElectrons: 331.000000   nBands: 249   nStates: 9

----- Setting up reduced wavefunction bases (one per k-point) -----
average nbasis = 19028.688 , ideal nbasis = 19027.765

---------- Setting up ewald sum ----------
Optimum gaussian width for ewald sums = 3.892289 bohr.
Real space sum over 693 unit cells with max indices [  4  5  3  ]
Reciprocal space sum over 5655 terms with max indices [  7  6  14  ]

---------- Allocating electronic variables ----------
Initializing wave functions:  linear combination of atomic orbitals
O pseudo-atom occupations:   s ( 2 )  p ( 4 )
C pseudo-atom occupations:   s ( 2 )  p ( 2 )
H pseudo-atom occupations:   s ( 1 )
Pt pseudo-atom occupations:   s ( 0 )  p ( 6 0 )  d ( 10 )
	FillingsUpdate:  mu: -0.410619900  nElectrons: 331.000000
LCAOMinimize: Iter:   0  F: -1789.2806237439515371  |grad|_K:  2.347e-02  alpha:  1.000e+00
LCAOMinimize: 	Step increased F by 6.309187e+01, reducing alpha to 2.270572e-02.
	FillingsUpdate:  mu: -0.255862779  nElectrons: 331.000000
LCAOMinimize: Iter:   1  F: -1795.2470819332629617  |grad|_K:  1.544e-02  alpha:  2.271e-02  linmin: -2.809e-01  cgtest:  9.157e-01  t[s]:    362.59
LCAOMinimize: Encountered beta<0, resetting CG.
LCAOMinimize: 	Predicted alpha/alphaT>3.000000, increasing alphaT to 6.811717e-02.
	FillingsUpdate:  mu: +0.372708684  nElectrons: 331.000000
LCAOMinimize: Iter:   2  F: -1800.1224033290309308  |grad|_K:  8.130e-03  alpha:  7.607e-02  linmin:  1.208e-01  cgtest: -5.586e-01  t[s]:    477.12
	FillingsUpdate:  mu: +0.512556214  nElectrons: 331.000000
LCAOMinimize: Iter:   3  F: -1800.7107052592555192  |grad|_K:  8.425e-03  alpha:  5.572e-02  linmin: -2.083e-03  cgtest:  8.510e-01  t[s]:    568.42
	FillingsUpdate:  mu: +0.316143449  nElectrons: 331.000000
LCAOMinimize: Iter:   4  F: -1801.7031703080590432  |grad|_K:  4.877e-03  alpha:  4.993e-02  linmin: -7.298e-03  cgtest: -7.155e-02  t[s]:    661.27
	FillingsUpdate:  mu: +0.218809545  nElectrons: 331.000000
LCAOMinimize: Iter:   5  F: -1801.8561774510542364  |grad|_K:  1.611e-03  alpha:  2.472e-02  linmin:  4.163e-02  cgtest: -7.750e-02  t[s]:    750.97
LCAOMinimize: 	Predicted alpha/alphaT>3.000000, increasing alphaT to 7.415938e-02.
LCAOMinimize: 	Predicted alpha/alphaT>3.000000, increasing alphaT to 2.224781e-01.
	FillingsUpdate:  mu: +0.297439599  nElectrons: 331.000000
LCAOMinimize: Iter:   6  F: -1802.0792580784277561  |grad|_K:  1.683e-03  alpha:  3.168e-01  linmin: -1.228e-02  cgtest:  1.055e-01  t[s]:    886.51
	FillingsUpdate:  mu: +0.294253963  nElectrons: 331.000000
LCAOMinimize: Iter:   7  F: -1802.1014471593598500  |grad|_K:  1.533e-03  alpha:  3.824e-02  linmin:  4.963e-02  cgtest: -4.005e-01  t[s]:    975.35
	FillingsUpdate:  mu: +0.297725901  nElectrons: 331.000000
LCAOMinimize: Iter:   8  F: -1802.1173338871228680  |grad|_K:  1.817e-03  alpha:  4.339e-02  linmin: -3.842e-04  cgtest:  9.075e-01  t[s]:   1062.83
	FillingsUpdate:  mu: +0.273724922  nElectrons: 331.000000
LCAOMinimize: Iter:   9  F: -1802.1375208498693610  |grad|_K:  4.481e-04  alpha:  2.175e-02  linmin:  1.578e-03  cgtest: -8.349e-02  t[s]:   1152.41
LCAOMinimize: 	Predicted alpha/alphaT>3.000000, increasing alphaT to 6.524554e-02.
	FillingsUpdate:  mu: +0.282930999  nElectrons: 331.000000
LCAOMinimize: Iter:  10  F: -1802.1439939598703859  |grad|_K:  3.375e-04  alpha:  1.155e-01  linmin:  4.631e-03  cgtest: -1.978e-02  t[s]:   1265.70
	FillingsUpdate:  mu: +0.275410201  nElectrons: 331.000000
LCAOMinimize: Iter:  11  F: -1802.1477964884707035  |grad|_K:  4.247e-04  alpha:  1.203e-01  linmin:  1.493e-03  cgtest:  1.487e-02  t[s]:   1353.41
	FillingsUpdate:  mu: +0.269280372  nElectrons: 331.000000
LCAOMinimize: Iter:  12  F: -1802.1492296223748326  |grad|_K:  1.543e-04  alpha:  2.842e-02  linmin: -1.651e-03  cgtest:  6.759e-02  t[s]:   1443.20
LCAOMinimize: 	Predicted alpha/alphaT>3.000000, increasing alphaT to 8.526323e-02.
	FillingsUpdate:  mu: +0.270381718  nElectrons: 331.000000
LCAOMinimize: Iter:  13  F: -1802.1501138676858318  |grad|_K:  8.994e-05  alpha:  1.317e-01  linmin:  7.632e-04  cgtest:  5.528e-03  t[s]:   1553.80
	FillingsUpdate:  mu: +0.269856329  nElectrons: 331.000000
LCAOMinimize: Iter:  14  F: -1802.1501992365426759  |grad|_K:  7.141e-05  alpha:  3.755e-02  linmin: -2.454e-04  cgtest:  2.702e-03  t[s]:   1642.46
	FillingsUpdate:  mu: +0.268680296  nElectrons: 331.000000
LCAOMinimize: Iter:  15  F: -1802.1502798606154556  |grad|_K:  3.386e-05  alpha:  5.614e-02  linmin: -4.924e-04  cgtest: -5.127e-03  t[s]:   1730.68
LCAOMinimize: 	Predicted alpha/alphaT>3.000000, increasing alphaT to 1.684168e-01.
	FillingsUpdate:  mu: +0.269843057  nElectrons: 331.000000
LCAOMinimize: Iter:  16  F: -1802.1503429274257542  |grad|_K:  3.463e-05  alpha:  1.953e-01  linmin: -9.401e-06  cgtest: -2.723e-03  t[s]:   1844.11
	FillingsUpdate:  mu: +0.269964975  nElectrons: 331.000000
LCAOMinimize: Iter:  17  F: -1802.1503550179666036  |grad|_K:  2.802e-05  alpha:  3.585e-02  linmin:  5.358e-05  cgtest:  4.249e-04  t[s]:   1932.18
	FillingsUpdate:  mu: +0.269708399  nElectrons: 331.000000
LCAOMinimize: Iter:  18  F: -1802.1503764167573536  |grad|_K:  1.332e-05  alpha:  9.698e-02  linmin:  1.852e-04  cgtest:  2.233e-03  t[s]:   2020.36
	FillingsUpdate:  mu: +0.269876050  nElectrons: 331.000000
LCAOMinimize: Iter:  19  F: -1802.1503807580613739  |grad|_K:  9.468e-06  alpha:  8.699e-02  linmin:  8.241e-06  cgtest:  1.336e-03  t[s]:   2107.13
	FillingsUpdate:  mu: +0.269894412  nElectrons: 331.000000
LCAOMinimize: Iter:  20  F: -1802.1503814436125595  |grad|_K:  5.020e-06  alpha:  2.719e-02  linmin: -8.246e-05  cgtest:  5.700e-04  t[s]:   2196.72
LCAOMinimize: 	Predicted alpha/alphaT>3.000000, increasing alphaT to 8.155750e-02.
	FillingsUpdate:  mu: +0.269732001  nElectrons: 331.000000
LCAOMinimize: Iter:  21  F: -1802.1503827974033811  |grad|_K:  4.152e-06  alpha:  1.910e-01  linmin:  1.611e-04  cgtest: -1.957e-03  t[s]:   2309.13
	FillingsUpdate:  mu: +0.269777243  nElectrons: 331.000000
LCAOMinimize: Iter:  22  F: -1802.1503831959469153  |grad|_K:  4.218e-06  alpha:  8.221e-02  linmin: -1.993e-05  cgtest:  1.751e-03  t[s]:   2398.36
	FillingsUpdate:  mu: +0.269803367  nElectrons: 331.000000
LCAOMinimize: Iter:  23  F: -1802.1503833535327885  |grad|_K:  2.061e-06  alpha:  3.148e-02  linmin: -3.675e-05  cgtest: -8.299e-04  t[s]:   2485.87
LCAOMinimize: Converged (|Delta F|<1.000000e-06 for 2 iters).


---- Citations for features of the code used in this run ----

   Software package:
      R. Sundararaman, K. Letchworth-Weaver, K.A. Schwarz, D. Gunceler, Y. Ozhabes and T.A. Arias, 'JDFTx: software for joint density-functional theory', SoftwareX 6, 278 (2017)

   gga-PBEsol exchange-correlation functional:
      J.P. Perdew et al., Phys. Rev. Lett. 100, 136406 (2008)

   Pseudopotentials:
      KF Garrity, JW Bennett, KM Rabe and D Vanderbilt, Comput. Mater. Sci. 81, 446 (2014)

   Total energy minimization with Auxiliary Hamiltonian:
      C. Freysoldt, S. Boeck, and J. Neugebauer, Phys. Rev. B 79, 241103(R) (2009)

This list may not be complete. Please suggest additional citations or
report any other bugs at https://github.com/shankar1729/jdftx/issues

Initialization completed successfully at t[s]:   2559.77


-------- Electronic minimization -----------
	FillingsUpdate:  mu: +0.269803367  nElectrons: 331.000000
ElecMinimize: Iter:   0  F: -1802.150383353533016  |grad|_K:  1.419e-04  alpha:  1.000e+00
	FillingsUpdate:  mu: +0.299727922  nElectrons: 331.000000
	SubspaceRotationAdjust: set factor to 1
ElecMinimize: Iter:   1  F: -1802.541166144744011  |grad|_K:  7.496e-05  alpha:  4.595e-01  linmin:  1.045e-04  t[s]:   3075.35
	FillingsUpdate:  mu: +0.276767626  nElectrons: 331.000000
	SubspaceRotationAdjust: set factor to 0.586
ElecMinimize: Iter:   2  F: -1802.594064899491741  |grad|_K:  1.092e-04  alpha:  2.212e-01  linmin: -1.839e-05  t[s]:   3431.64
	FillingsUpdate:  mu: +0.272684520  nElectrons: 331.000000
	SubspaceRotationAdjust: set factor to 0.37
ElecMinimize: Iter:   3  F: -1802.618521176370905  |grad|_K:  7.235e-05  alpha:  4.524e-02  linmin: -2.139e-04  t[s]:   3789.66
	FillingsUpdate:  mu: +0.281903567  nElectrons: 331.000000
	SubspaceRotationAdjust: set factor to 0.247
ElecMinimize: Iter:   4  F: -1802.639378844084831  |grad|_K:  2.970e-05  alpha:  8.927e-02  linmin:  4.672e-05  t[s]:   4149.23
ElecMinimize: 	Predicted alpha/alphaT>3.000000, increasing alphaT to 2.678204e-01.
	FillingsUpdate:  mu: +0.289038310  nElectrons: 331.000000
	SubspaceRotationAdjust: set factor to 0.161
ElecMinimize: Iter:   5  F: -1802.651112347590470  |grad|_K:  2.955e-05  alpha:  3.137e-01  linmin:  8.517e-06  t[s]:   4592.83
	FillingsUpdate:  mu: +0.283824982  nElectrons: 331.000000
	SubspaceRotationAdjust: set factor to 0.125
	SubspaceRotationAdjust: resetting CG because factor has changed by 0.125205
ElecMinimize: 	State modified externally: resetting search direction.
ElecMinimize: Iter:   6  F: -1802.655336836663992  |grad|_K:  1.492e-05  alpha:  1.136e-01
	FillingsUpdate:  mu: +0.281570210  nElectrons: 331.000000
	SubspaceRotationAdjust: set factor to 0.15
ElecMinimize: Iter:   7  F: -1802.658215312768789  |grad|_K:  8.837e-06  alpha:  3.014e-01  linmin: -9.827e-06  t[s]:   5443.46
	FillingsUpdate:  mu: +0.280762187  nElectrons: 331.000000
	SubspaceRotationAdjust: set factor to 0.12
ElecMinimize: Iter:   8  F: -1802.659477691959637  |grad|_K:  8.392e-06  alpha:  3.766e-01  linmin: -2.503e-06  t[s]:   5801.92
	FillingsUpdate:  mu: +0.281310817  nElectrons: 331.000000
	SubspaceRotationAdjust: set factor to 0.104
ElecMinimize: Iter:   9  F: -1802.660493457663506  |grad|_K:  5.664e-06  alpha:  3.358e-01  linmin:  7.188e-06  t[s]:   6161.58
	FillingsUpdate:  mu: +0.281972072  nElectrons: 331.000000
	SubspaceRotationAdjust: set factor to 0.12
ElecMinimize: Iter:  10  F: -1802.661277683222352  |grad|_K:  4.424e-06  alpha:  5.730e-01  linmin:  4.645e-05  t[s]:   6517.52
	FillingsUpdate:  mu: +0.282160019  nElectrons: 331.000000
	SubspaceRotationAdjust: set factor to 0.124
ElecMinimize: Iter:  11  F: -1802.661980541638968  |grad|_K:  5.146e-06  alpha:  8.528e-01  linmin:  4.276e-05  t[s]:   6875.86
	FillingsUpdate:  mu: +0.282393416  nElectrons: 331.000000
	SubspaceRotationAdjust: set factor to 0.103
ElecMinimize: Iter:  12  F: -1802.662436991312688  |grad|_K:  4.913e-06  alpha:  4.061e-01  linmin: -7.190e-06  t[s]:   7236.52
	FillingsUpdate:  mu: +0.282988979  nElectrons: 331.000000
	SubspaceRotationAdjust: set factor to 0.0869
ElecMinimize: Iter:  13  F: -1802.662951797136202  |grad|_K:  4.272e-06  alpha:  4.956e-01  linmin:  3.688e-06  t[s]:   7599.33
	FillingsUpdate:  mu: +0.282872136  nElectrons: 331.000000
	SubspaceRotationAdjust: set factor to 0.0899
ElecMinimize: Iter:  14  F: -1802.663324385176338  |grad|_K:  2.902e-06  alpha:  4.771e-01  linmin: -5.241e-07  t[s]:   7956.47
	FillingsUpdate:  mu: +0.283069137  nElectrons: 331.000000
	SubspaceRotationAdjust: set factor to 0.0947
ElecMinimize: Iter:  15  F: -1802.663469109245625  |grad|_K:  1.742e-06  alpha:  4.004e-01  linmin: -2.134e-06  t[s]:   8315.91
	FillingsUpdate:  mu: +0.283453903  nElectrons: 331.000000
	SubspaceRotationAdjust: set factor to 0.0936
ElecMinimize: Iter:  16  F: -1802.663525114361391  |grad|_K:  1.309e-06  alpha:  4.295e-01  linmin: -7.050e-07  t[s]:   8681.56
	FillingsUpdate:  mu: +0.283563852  nElectrons: 331.000000
	SubspaceRotationAdjust: set factor to 0.101
ElecMinimize: Iter:  17  F: -1802.663555562953661  |grad|_K:  8.930e-07  alpha:  4.137e-01  linmin:  6.138e-07  t[s]:   9034.98
	FillingsUpdate:  mu: +0.283486537  nElectrons: 331.000000
	SubspaceRotationAdjust: set factor to 0.133
ElecMinimize: Iter:  18  F: -1802.663571880535301  |grad|_K:  7.320e-07  alpha:  4.770e-01  linmin:  1.766e-06  t[s]:   9394.73
	FillingsUpdate:  mu: +0.283383218  nElectrons: 331.000000
	SubspaceRotationAdjust: set factor to 0.18
ElecMinimize: Iter:  19  F: -1802.663584092225165  |grad|_K:  7.061e-07  alpha:  5.320e-01  linmin:  2.145e-06  t[s]:   9750.49
	FillingsUpdate:  mu: +0.283292896  nElectrons: 331.000000
	SubspaceRotationAdjust: set factor to 0.217
ElecMinimize: Iter:  20  F: -1802.663596995519583  |grad|_K:  7.990e-07  alpha:  6.052e-01  linmin:  2.960e-06  t[s]:  10106.66
	FillingsUpdate:  mu: +0.283190854  nElectrons: 331.000000
	SubspaceRotationAdjust: set factor to 0.202
ElecMinimize: Iter:  21  F: -1802.663606916440585  |grad|_K:  9.744e-07  alpha:  3.625e-01  linmin:  6.608e-08  t[s]:  10466.40
	FillingsUpdate:  mu: +0.283003186  nElectrons: 331.000000
	SubspaceRotationAdjust: set factor to 0.169
ElecMinimize: Iter:  22  F: -1802.663616377567223  |grad|_K:  7.454e-07  alpha:  2.310e-01  linmin: -6.454e-08  t[s]:  10824.72
	FillingsUpdate:  mu: +0.282847537  nElectrons: 331.000000
	SubspaceRotationAdjust: set factor to 0.187
ElecMinimize: Iter:  23  F: -1802.663625571453849  |grad|_K:  5.847e-07  alpha:  3.878e-01  linmin:  3.856e-06  t[s]:  11186.42
	FillingsUpdate:  mu: +0.282817262  nElectrons: 331.000000
	SubspaceRotationAdjust: set factor to 0.234
ElecMinimize: Iter:  24  F: -1802.663631011091638  |grad|_K:  4.484e-07  alpha:  3.754e-01  linmin:  7.988e-07  t[s]:  11543.14
	FillingsUpdate:  mu: +0.282821349  nElectrons: 331.000000
	SubspaceRotationAdjust: set factor to 0.281
ElecMinimize: Iter:  25  F: -1802.663634772950218  |grad|_K:  3.892e-07  alpha:  4.370e-01  linmin:  6.600e-07  t[s]:  11902.55
	FillingsUpdate:  mu: +0.282832011  nElectrons: 331.000000
	SubspaceRotationAdjust: set factor to 0.223
ElecMinimize: Iter:  26  F: -1802.663636925524543  |grad|_K:  3.970e-07  alpha:  3.315e-01  linmin:  4.212e-08  t[s]:  12261.29
	FillingsUpdate:  mu: +0.282851581  nElectrons: 331.000000
	SubspaceRotationAdjust: set factor to 0.201
ElecMinimize: Iter:  27  F: -1802.663638110856027  |grad|_K:  3.591e-07  alpha:  1.751e-01  linmin: -1.110e-07  t[s]:  12620.04
	FillingsUpdate:  mu: +0.282918989  nElectrons: 331.000000
	SubspaceRotationAdjust: set factor to 0.289
ElecMinimize: Iter:  28  F: -1802.663639617228228  |grad|_K:  2.529e-07  alpha:  2.723e-01  linmin:  7.251e-07  t[s]:  12980.70
	FillingsUpdate:  mu: +0.282976857  nElectrons: 331.000000
	SubspaceRotationAdjust: set factor to 0.256
ElecMinimize: Iter:  29  F: -1802.663640704900445  |grad|_K:  2.984e-07  alpha:  3.972e-01  linmin:  6.367e-07  t[s]:  13334.21
	FillingsUpdate:  mu: +0.282993838  nElectrons: 331.000000
	SubspaceRotationAdjust: set factor to 0.226
ElecMinimize: Iter:  30  F: -1802.663641254134063  |grad|_K:  2.630e-07  alpha:  1.438e-01  linmin: -1.781e-07  t[s]:  13696.98
	FillingsUpdate:  mu: +0.283025607  nElectrons: 331.000000
	SubspaceRotationAdjust: set factor to 0.325
ElecMinimize: Iter:  31  F: -1802.663642090695930  |grad|_K:  2.044e-07  alpha:  2.818e-01  linmin:  1.820e-07  t[s]:  14057.67
	FillingsUpdate:  mu: +0.283057556  nElectrons: 331.000000
	SubspaceRotationAdjust: set factor to 0.236
ElecMinimize: Iter:  32  F: -1802.663642619087341  |grad|_K:  2.697e-07  alpha:  2.950e-01  linmin: -1.036e-07  t[s]:  14416.61
	FillingsUpdate:  mu: +0.283068835  nElectrons: 331.000000
	SubspaceRotationAdjust: set factor to 0.235
ElecMinimize: Iter:  33  F: -1802.663642992828272  |grad|_K:  1.758e-07  alpha:  1.197e-01  linmin:  9.689e-08  t[s]:  14773.03
	FillingsUpdate:  mu: +0.283072104  nElectrons: 331.000000
	SubspaceRotationAdjust: set factor to 0.242
ElecMinimize: Iter:  34  F: -1802.663643464666166  |grad|_K:  1.653e-07  alpha:  3.550e-01  linmin: -8.840e-07  t[s]:  15132.99
	FillingsUpdate:  mu: +0.283070511  nElectrons: 331.000000
	SubspaceRotationAdjust: set factor to 0.216
ElecMinimize: Iter:  35  F: -1802.663643672439548  |grad|_K:  1.650e-07  alpha:  1.764e-01  linmin:  1.103e-07  t[s]:  15496.55
	FillingsUpdate:  mu: +0.283055835  nElectrons: 331.000000
	SubspaceRotationAdjust: set factor to 0.319
ElecMinimize: Iter:  36  F: -1802.663643960577929  |grad|_K:  1.188e-07  alpha:  2.465e-01  linmin: -2.454e-07  t[s]:  15859.84
	FillingsUpdate:  mu: +0.283047414  nElectrons: 331.000000
	SubspaceRotationAdjust: set factor to 0.238
ElecMinimize: Iter:  37  F: -1802.663644147196237  |grad|_K:  1.501e-07  alpha:  3.075e-01  linmin: -8.503e-08  t[s]:  16214.77
	FillingsUpdate:  mu: +0.283042546  nElectrons: 331.000000
	SubspaceRotationAdjust: set factor to 0.22
ElecMinimize: Iter:  38  F: -1802.663644257436772  |grad|_K:  1.018e-07  alpha:  1.139e-01  linmin:  1.158e-08  t[s]:  16574.27
	FillingsUpdate:  mu: +0.283022458  nElectrons: 331.000000
	SubspaceRotationAdjust: set factor to 0.231
ElecMinimize: Iter:  39  F: -1802.663644404789920  |grad|_K:  9.310e-08  alpha:  3.281e-01  linmin: -2.126e-06  t[s]:  16931.31
	FillingsUpdate:  mu: +0.283011348  nElectrons: 331.000000
	SubspaceRotationAdjust: set factor to 0.207
ElecMinimize: Iter:  40  F: -1802.663644464793379  |grad|_K:  8.430e-08  alpha:  1.592e-01  linmin:  5.694e-08  t[s]:  17289.05
	FillingsUpdate:  mu: +0.283000716  nElectrons: 331.000000
	SubspaceRotationAdjust: set factor to 0.303
ElecMinimize: Iter:  41  F: -1802.663644552488677  |grad|_K:  6.600e-08  alpha:  2.879e-01  linmin:  7.232e-08  t[s]:  17648.06
	FillingsUpdate:  mu: +0.282999339  nElectrons: 331.000000
	SubspaceRotationAdjust: set factor to 0.215
ElecMinimize: Iter:  42  F: -1802.663644598987958  |grad|_K:  8.318e-08  alpha:  2.493e-01  linmin:  1.702e-08  t[s]:  18005.58
	FillingsUpdate:  mu: +0.282996412  nElectrons: 331.000000
	SubspaceRotationAdjust: set factor to 0.26
ElecMinimize: Iter:  43  F: -1802.663644643369707  |grad|_K:  5.639e-08  alpha:  1.492e-01  linmin: -3.464e-08  t[s]:  18367.67
	FillingsUpdate:  mu: +0.282991528  nElectrons: 331.000000
	SubspaceRotationAdjust: set factor to 0.243
ElecMinimize: Iter:  44  F: -1802.663644694443974  |grad|_K:  5.850e-08  alpha:  3.744e-01  linmin: -2.350e-07  t[s]:  18727.35
	FillingsUpdate:  mu: +0.282992454  nElectrons: 331.000000
	SubspaceRotationAdjust: set factor to 0.223
ElecMinimize: Iter:  45  F: -1802.663644717623356  |grad|_K:  5.643e-08  alpha:  1.571e-01  linmin:  7.900e-08  t[s]:  19083.27
	FillingsUpdate:  mu: +0.282995642  nElectrons: 331.000000
	SubspaceRotationAdjust: set factor to 0.327
ElecMinimize: Iter:  46  F: -1802.663644755814175  |grad|_K:  4.361e-08  alpha:  2.799e-01  linmin:  1.768e-07  t[s]:  19438.02
	FillingsUpdate:  mu: +0.282998994  nElectrons: 331.000000
	SubspaceRotationAdjust: set factor to 0.254
ElecMinimize: Iter:  47  F: -1802.663644775284865  |grad|_K:  5.489e-08  alpha:  2.401e-01  linmin:  2.169e-07  t[s]:  19790.15
	FillingsUpdate:  mu: +0.283003935  nElectrons: 331.000000
	SubspaceRotationAdjust: set factor to 0.242
ElecMinimize: Iter:  48  F: -1802.663644792005925  |grad|_K:  3.567e-08  alpha:  1.296e-01  linmin:  6.877e-08  t[s]:  20154.40
	FillingsUpdate:  mu: +0.283006342  nElectrons: 331.000000
	SubspaceRotationAdjust: set factor to 0.288
ElecMinimize: Iter:  49  F: -1802.663644810435244  |grad|_K:  3.262e-08  alpha:  3.472e-01  linmin:  1.834e-06  t[s]:  20516.51
	FillingsUpdate:  mu: +0.283007014  nElectrons: 331.000000
	SubspaceRotationAdjust: set factor to 0.263
ElecMinimize: Iter:  50  F: -1802.663644817675731  |grad|_K:  3.242e-08  alpha:  1.659e-01  linmin: -7.510e-10  t[s]:  20871.10
	FillingsUpdate:  mu: +0.283010486  nElectrons: 331.000000
	SubspaceRotationAdjust: set factor to 0.354
ElecMinimize: Iter:  51  F: -1802.663644827848657  |grad|_K:  2.288e-08  alpha:  2.279e-01  linmin:  6.376e-07  t[s]:  21230.47
	FillingsUpdate:  mu: +0.283013309  nElectrons: 331.000000
	SubspaceRotationAdjust: set factor to 0.326
ElecMinimize: Iter:  52  F: -1802.663644835807190  |grad|_K:  2.352e-08  alpha:  3.668e-01  linmin:  1.089e-06  t[s]:  21592.50
	FillingsUpdate:  mu: +0.283012533  nElectrons: 331.000000
	SubspaceRotationAdjust: set factor to 0.254
ElecMinimize: Iter:  53  F: -1802.663644839615472  |grad|_K:  2.632e-08  alpha:  1.619e-01  linmin:  1.161e-07  t[s]:  21953.23
ElecMinimize: Converged (|Delta F|<1.000000e-08 for 2 iters).
Setting wave functions to eigenvectors of Hamiltonian

# Ionic positions in lattice coordinates:
ion O   0.500000000000000   0.311830000000000   0.335450000000000 1
ion C   0.500000000000000   0.500000000000000   0.296010000000000 1
ion H   0.500000000000000   0.681230000000000   0.325060000000000 1
ion Pt   0.000000000000000   0.000000000000000  -0.166660000000000 0
ion Pt   0.000000000000000   0.500000000000000  -0.166660000000000 0
ion Pt   0.500000000000000   0.000000000000000  -0.166660000000000 0
ion Pt   0.500000000000000   0.500000000000000  -0.166660000000000 0
ion Pt   0.250000000000000   0.250000000000000  -0.083330000000000 0
ion Pt   0.250000000000000   0.750000000000000  -0.083330000000000 0
ion Pt   0.750000000000000   0.250000000000000  -0.083330000000000 0
ion Pt   0.750000000000000   0.750000000000000  -0.083330000000000 0
ion Pt   0.000000000000000   0.000000000000000   0.000000000000000 1
ion Pt   0.000000000000000   0.500000000000000   0.000000000000000 1
ion Pt   0.500000000000000   0.000000000000000   0.000000000000000 1
ion Pt   0.500000000000000   0.500000000000000   0.000000000000000 1
ion Pt   0.250000000000000   0.250000000000000   0.083330000000000 1
ion Pt   0.250000000000000   0.750000000000000   0.083330000000000 1
ion Pt   0.750000000000000   0.250000000000000   0.083330000000000 1
ion Pt   0.750000000000000   0.750000000000000   0.083330000000000 1
ion Pt   0.000000000000000   0.000000000000000   0.166660000000000 1
ion Pt   0.000000000000000   0.500000000000000   0.166660000000000 1
ion Pt   0.500000000000000   0.000000000000000   0.166660000000000 1
ion Pt   0.500000000000000   0.500000000000000   0.166660000000000 1


# Forces in Lattice coordinates:
force O   0.000000000000000   0.258587252781263  -0.523365452765507 1
force C   0.000000000000000  -0.393375325574550  -0.670281399318843 1
force H   0.000000000000000   0.099129503970903   0.055974632360422 1
force Pt   0.000000000000000  -0.000273721997020  -0.324859146232077 0
force Pt   0.000000000000000   0.000181290368986  -0.329024759407246 0
force Pt   0.000000000000000  -0.001377052567233  -0.321300674277539 0
force Pt   0.000000000000000   0.001247723678160  -0.421542167845828 0
force Pt   0.005800270769192   0.003854801858981  -0.868757844717023 0
force Pt   0.006217383018754  -0.003792889768522  -0.867548984202620 0
force Pt  -0.005800270769192   0.003854801858981  -0.868757844717023 0
force Pt  -0.006217383018754  -0.003792889768522  -0.867548984202620 0
force Pt   0.000000000000000  -0.000835985822676  -0.064273186458836 1
force Pt   0.000000000000000   0.001044603168745   0.006847681870894 1
force Pt   0.000000000000000  -0.000027938622731   0.040400359793656 1
force Pt   0.000000000000000  -0.003021209805515   0.161867341412557 1
force Pt  -0.025236989106715  -0.010859183851371   0.833069730514373 1
force Pt  -0.024754456210218   0.011057681159964   0.837661490562310 1
force Pt   0.025236989106715  -0.010859183851371   0.833069730514373 1
force Pt   0.024754456210218   0.011057681159964   0.837661490562310 1
force Pt   0.000000000000000   0.000095716064578   0.293003888563171 1
force Pt   0.000000000000000   0.000632280098399   0.314207560673876 1
force Pt   0.000000000000000   0.009380773464551   0.238895935585334 1
force Pt   0.000000000000000   0.027192432459196   1.693944149894777 1

# Energy components:
   Eewald =     2312.3305673568461316
       EH =     3990.7868549621107377
     Eloc =    -8422.3894289450818178
      Enl =      -17.6191862989203649
      Exc =     -572.4127429504984548
 Exc_core =      324.9288817363281510
       KE =      581.9388403194476496
-------------------------------------
     Etot =    -1802.4362138197675449
       TS =        0.2274310198478905
-------------------------------------
        F =    -1802.6636448396154719

IonicMinimize: Iter:   0  F: -1802.663644839615472  |grad|_K:  1.419e-02  t[s]:  22012.72

#--- Lowdin population analysis ---
# oxidation-state O -0.185
# oxidation-state C +0.250
# oxidation-state H +0.232
# oxidation-state Pt +0.070 +0.070 +0.070 +0.065 -0.046 -0.047 -0.046 -0.047 +0.015 +0.015 +0.016 -0.002 -0.045 -0.045 -0.045 -0.045 +0.064 +0.066 +0.055 -0.059


-------- Electronic minimization -----------
	FillingsUpdate:  mu: +0.328211946  nElectrons: 331.000000
ElecMinimize: Iter:   0  F: -1802.399329345776550  |grad|_K:  1.507e-04  alpha:  1.000e+00
	FillingsUpdate:  mu: +0.316458806  nElectrons: 331.000000
	SubspaceRotationAdjust: set factor to 0.153
ElecMinimize: Iter:   1  F: -1802.571057948339103  |grad|_K:  1.207e-04  alpha:  1.962e-01  linmin:  9.531e-03  t[s]:  22641.79
	FillingsUpdate:  mu: +0.265211471  nElectrons: 331.000000
	SubspaceRotationAdjust: set factor to 0.163
ElecMinimize: Iter:   2  F: -1802.635138378188230  |grad|_K:  3.894e-05  alpha:  1.127e-01  linmin:  1.073e-04  t[s]:  22999.63
	FillingsUpdate:  mu: +0.282763440  nElectrons: 331.000000
	SubspaceRotationAdjust: set factor to 0.121
ElecMinimize: Iter:   3  F: -1802.653814548293212  |grad|_K:  2.459e-05  alpha:  2.884e-01  linmin:  5.392e-04  t[s]:  23358.26
	FillingsUpdate:  mu: +0.283298489  nElectrons: 331.000000
	SubspaceRotationAdjust: set factor to 0.0941
ElecMinimize: Iter:   4  F: -1802.657676837809959  |grad|_K:  1.293e-05  alpha:  1.495e-01  linmin: -5.752e-05  t[s]:  23714.52
	FillingsUpdate:  mu: +0.281950227  nElectrons: 331.000000
	SubspaceRotationAdjust: set factor to 0.0885
ElecMinimize: Iter:   5  F: -1802.660601093857849  |grad|_K:  1.099e-05  alpha:  4.068e-01  linmin: -2.081e-05  t[s]:  24074.67
	FillingsUpdate:  mu: +0.281775500  nElectrons: 331.000000
	SubspaceRotationAdjust: set factor to 0.0803
ElecMinimize: Iter:   6  F: -1802.662390081130297  |grad|_K:  1.014e-05  alpha:  3.443e-01  linmin:  2.651e-05  t[s]:  24429.16
	FillingsUpdate:  mu: +0.284463862  nElectrons: 331.000000
	SubspaceRotationAdjust: set factor to 0.111
ElecMinimize: Iter:   7  F: -1802.664582096303093  |grad|_K:  9.623e-06  alpha:  4.974e-01  linmin: -1.068e-05  t[s]:  24788.65
	FillingsUpdate:  mu: +0.285641704  nElectrons: 331.000000
	SubspaceRotationAdjust: set factor to 0.105
ElecMinimize: Iter:   8  F: -1802.666132013415563  |grad|_K:  9.198e-06  alpha:  3.904e-01  linmin: -1.734e-05  t[s]:  25145.48
	FillingsUpdate:  mu: +0.285029156  nElectrons: 331.000000
	SubspaceRotationAdjust: set factor to 0.108
ElecMinimize: Iter:   9  F: -1802.667689703245287  |grad|_K:  8.673e-06  alpha:  4.286e-01  linmin:  3.219e-05  t[s]:  25498.85
	FillingsUpdate:  mu: +0.284496019  nElectrons: 331.000000
	SubspaceRotationAdjust: set factor to 0.127
ElecMinimize: Iter:  10  F: -1802.669281924537927  |grad|_K:  7.595e-06  alpha:  4.960e-01  linmin:  2.867e-05  t[s]:  25857.08
	FillingsUpdate:  mu: +0.283982717  nElectrons: 331.000000
	SubspaceRotationAdjust: set factor to 0.0976
ElecMinimize: Iter:  11  F: -1802.670009527249249  |grad|_K:  5.788e-06  alpha:  2.963e-01  linmin:  1.002e-05  t[s]:  26215.83
	FillingsUpdate:  mu: +0.283602018  nElectrons: 331.000000
	SubspaceRotationAdjust: set factor to 0.105
ElecMinimize: Iter:  12  F: -1802.670474442368914  |grad|_K:  3.158e-06  alpha:  3.238e-01  linmin:  1.829e-05  t[s]:  26575.65
	FillingsUpdate:  mu: +0.283387158  nElectrons: 331.000000
	SubspaceRotationAdjust: set factor to 0.111
ElecMinimize: Iter:  13  F: -1802.670647812115249  |grad|_K:  2.204e-06  alpha:  4.058e-01  linmin:  5.993e-06  t[s]:  26935.47
	FillingsUpdate:  mu: +0.283337764  nElectrons: 331.000000
	SubspaceRotationAdjust: set factor to 0.086
ElecMinimize: Iter:  14  F: -1802.670707519375128  |grad|_K:  1.413e-06  alpha:  2.865e-01  linmin: -9.572e-07  t[s]:  27294.40
	FillingsUpdate:  mu: +0.283401642  nElectrons: 331.000000
	SubspaceRotationAdjust: set factor to 0.0958
ElecMinimize: Iter:  15  F: -1802.670738173552763  |grad|_K:  8.748e-07  alpha:  3.578e-01  linmin:  2.215e-06  t[s]:  27651.65
	FillingsUpdate:  mu: +0.283338901  nElectrons: 331.000000
	SubspaceRotationAdjust: set factor to 0.116
ElecMinimize: Iter:  16  F: -1802.670751735677186  |grad|_K:  6.616e-07  alpha:  4.130e-01  linmin:  4.871e-07  t[s]:  28009.01
	FillingsUpdate:  mu: +0.283271514  nElectrons: 331.000000
	SubspaceRotationAdjust: set factor to 0.118
ElecMinimize: Iter:  17  F: -1802.670759076901959  |grad|_K:  5.457e-07  alpha:  3.908e-01  linmin: -9.108e-07  t[s]:  28367.96
	FillingsUpdate:  mu: +0.283266536  nElectrons: 331.000000
	SubspaceRotationAdjust: set factor to 0.119
ElecMinimize: Iter:  18  F: -1802.670764477609055  |grad|_K:  4.981e-07  alpha:  4.225e-01  linmin:  7.091e-07  t[s]:  28725.32
	FillingsUpdate:  mu: +0.283235442  nElectrons: 331.000000
	SubspaceRotationAdjust: set factor to 0.139
ElecMinimize: Iter:  19  F: -1802.670769801790357  |grad|_K:  4.367e-07  alpha:  5.000e-01  linmin: -2.445e-07  t[s]:  29087.71
	FillingsUpdate:  mu: +0.283204244  nElectrons: 331.000000
	SubspaceRotationAdjust: set factor to 0.158
ElecMinimize: Iter:  20  F: -1802.670774250634167  |grad|_K:  3.914e-07  alpha:  5.435e-01  linmin: -2.197e-07  t[s]:  29439.61
	FillingsUpdate:  mu: +0.283230811  nElectrons: 331.000000
	SubspaceRotationAdjust: set factor to 0.14
ElecMinimize: Iter:  21  F: -1802.670776886323210  |grad|_K:  3.877e-07  alpha:  4.008e-01  linmin:  7.585e-08  t[s]:  29800.20
	FillingsUpdate:  mu: +0.283228087  nElectrons: 331.000000
	SubspaceRotationAdjust: set factor to 0.111
ElecMinimize: Iter:  22  F: -1802.670778603279359  |grad|_K:  2.771e-07  alpha:  2.663e-01  linmin:  1.348e-08  t[s]:  30157.74
	FillingsUpdate:  mu: +0.283216650  nElectrons: 331.000000
	SubspaceRotationAdjust: set factor to 0.124
ElecMinimize: Iter:  23  F: -1802.670779884188278  |grad|_K:  1.828e-07  alpha:  3.888e-01  linmin:  2.724e-07  t[s]:  30511.99
	FillingsUpdate:  mu: +0.283221416  nElectrons: 331.000000
	SubspaceRotationAdjust: set factor to 0.139
ElecMinimize: Iter:  24  F: -1802.670780486894955  |grad|_K:  1.299e-07  alpha:  4.202e-01  linmin:  3.063e-08  t[s]:  30868.02
	FillingsUpdate:  mu: +0.283223090  nElectrons: 331.000000
	SubspaceRotationAdjust: set factor to 0.119
ElecMinimize: Iter:  25  F: -1802.670780721009805  |grad|_K:  1.009e-07  alpha:  3.234e-01  linmin: -5.748e-07  t[s]:  31229.03
	FillingsUpdate:  mu: +0.283223023  nElectrons: 331.000000
	SubspaceRotationAdjust: set factor to 0.0982
ElecMinimize: Iter:  26  F: -1802.670780851499785  |grad|_K:  6.740e-08  alpha:  2.983e-01  linmin: -3.072e-07  t[s]:  31587.68
	FillingsUpdate:  mu: +0.283217883  nElectrons: 331.000000
	SubspaceRotationAdjust: set factor to 0.117
ElecMinimize: Iter:  27  F: -1802.670780922062704  |grad|_K:  4.267e-08  alpha:  3.629e-01  linmin:  2.604e-06  t[s]:  31940.57
	FillingsUpdate:  mu: +0.283218350  nElectrons: 331.000000
	SubspaceRotationAdjust: set factor to 0.131
ElecMinimize: Iter:  28  F: -1802.670780953600797  |grad|_K:  3.037e-08  alpha:  4.071e-01  linmin:  3.921e-06  t[s]:  32297.00
	FillingsUpdate:  mu: +0.283219746  nElectrons: 331.000000
	SubspaceRotationAdjust: set factor to 0.118
ElecMinimize: Iter:  29  F: -1802.670780967576093  |grad|_K:  2.648e-08  alpha:  3.558e-01  linmin:  1.539e-06  t[s]:  32654.15
	FillingsUpdate:  mu: +0.283218707  nElectrons: 331.000000
	SubspaceRotationAdjust: set factor to 0.123
ElecMinimize: Iter:  30  F: -1802.670780978072571  |grad|_K:  1.939e-08  alpha:  3.493e-01  linmin:  5.057e-07  t[s]:  33009.50
	FillingsUpdate:  mu: +0.283218774  nElectrons: 331.000000
	SubspaceRotationAdjust: set factor to 0.158
ElecMinimize: Iter:  31  F: -1802.670780986477894  |grad|_K:  1.617e-08  alpha:  5.072e-01  linmin: -5.814e-06  t[s]:  33371.27
	FillingsUpdate:  mu: +0.283220357  nElectrons: 331.000000
	SubspaceRotationAdjust: set factor to 0.173
ElecMinimize: Iter:  32  F: -1802.670780993025346  |grad|_K:  1.769e-08  alpha:  5.776e-01  linmin:  3.480e-06  t[s]:  33733.67
ElecMinimize: Converged (|Delta F|<1.000000e-08 for 2 iters).
Setting wave functions to eigenvectors of Hamiltonian

# Ionic positions in lattice coordinates:
ion O   0.500000000000000   0.314233372764479   0.334909523745828 1
ion C   0.500000000000000   0.496343874133256   0.295317804559833 1
ion H   0.500000000000000   0.682151333698539   0.325117804655365 1
ion Pt   0.000000000000000   0.000000000000000  -0.166660000000000 0
ion Pt   0.000000000000000   0.500000000000000  -0.166660000000000 0
ion Pt   0.500000000000000   0.000000000000000  -0.166660000000000 0
ion Pt   0.500000000000000   0.500000000000000  -0.166660000000000 0
ion Pt   0.250000000000000   0.250000000000000  -0.083330000000000 0
ion Pt   0.250000000000000   0.750000000000000  -0.083330000000000 0
ion Pt   0.750000000000000   0.250000000000000  -0.083330000000000 0
ion Pt   0.750000000000000   0.750000000000000  -0.083330000000000 0
ion Pt   0.000000000000000  -0.000007769855382  -0.000066374520667 1
ion Pt   0.000000000000000   0.500009708795691   0.000007071558560 1
ion Pt   0.500000000000000  -0.000000259668349   0.000041721200765 1
ion Pt   0.500000000000000   0.499971920141909   0.000167159398652 1
ion Pt   0.249867457741178   0.249899072106486   0.084190305939250 1
ion Pt   0.249869991957910   0.750102772775735   0.084195047821347 1
ion Pt   0.750132542258822   0.249899072106486   0.084190305939250 1
ion Pt   0.750130008042090   0.750102772775735   0.084195047821347 1
ion Pt   0.000000000000000   0.000000889608363   0.166962583296837 1
ion Pt   0.000000000000000   0.500005876564880   0.166984480197400 1
ion Pt   0.500000000000000   0.000087187188123   0.166906706349683 1
ion Pt   0.500000000000000   0.500252733075082   0.168409325608089 1


# Forces in Lattice coordinates:
force O   0.000000000000000  -0.115430053979274   0.138611939596220 1
force C   0.000000000000000   0.109819315217633  -0.901774580674824 1
force H   0.000000000000000  -0.021335627354807  -0.177588543385666 1
force Pt   0.000000000000000  -0.000189983779918  -0.328122700967749 0
force Pt   0.000000000000000   0.000137160554079  -0.327889876018054 0
force Pt   0.000000000000000  -0.001187191297265  -0.317941994249611 0
force Pt   0.000000000000000   0.000985835866322  -0.416196288529227 0
force Pt   0.008720314758258   0.005072129066512  -0.829892312657221 0
force Pt   0.009203194393365  -0.005097220650985  -0.828674814415260 0
force Pt  -0.008720314758258   0.005072129066512  -0.829892312657221 0
force Pt  -0.009203194393365  -0.005097220650985  -0.828674814415260 0
force Pt   0.000000000000000  -0.000306753419588  -0.018640600780130 1
force Pt   0.000000000000000   0.000519664146416   0.055242194220874 1
force Pt   0.000000000000000  -0.000521603942899   0.087033542950717 1
force Pt   0.000000000000000  -0.001221184853893   0.235160262180738 1
force Pt  -0.010327579358028  -0.001001818095794   0.738674258817898 1
force Pt  -0.010577704715097   0.002752136254749   0.740330920720382 1
force Pt   0.010327579358028  -0.001001818095794   0.738674258817898 1
force Pt   0.010577704715097   0.002752136254749   0.740330920720382 1
force Pt   0.000000000000000   0.000022427059217   0.314492564018876 1
force Pt   0.000000000000000   0.000587626128951   0.327022986892361 1
force Pt   0.000000000000000   0.008328613668739   0.248527851397567 1
force Pt   0.000000000000000   0.016090096157466   1.410538144217664 1

# Energy components:
   Eewald =     2300.8879686689647315
       EH =     3979.4499890188426434
     Eloc =    -8399.6328424146267935
      Enl =      -17.6103960612745354
      Exc =     -572.4117074601252853
 Exc_core =      324.9288833901214844
       KE =      581.9446998283742687
-------------------------------------
     Etot =    -1802.4434050297240901
       TS =        0.2273759633012493
-------------------------------------
        F =    -1802.6707809930253461

IonicMinimize: Iter:   1  F: -1802.670780993025346  |grad|_K:  1.135e-02  alpha:  1.000e+00  linmin: -5.690e-01  t[s]:  33791.35

#--- Lowdin population analysis ---
# oxidation-state O -0.173
# oxidation-state C +0.264
# oxidation-state H +0.222
# oxidation-state Pt +0.071 +0.071 +0.071 +0.067 -0.046 -0.046 -0.046 -0.046 +0.015 +0.014 +0.015 -0.004 -0.047 -0.047 -0.047 -0.047 +0.063 +0.065 +0.051 -0.060


-------- Electronic minimization -----------
	FillingsUpdate:  mu: +0.377973204  nElectrons: 331.000000
ElecMinimize: Iter:   0  F: -1801.764032636816637  |grad|_K:  2.668e-04  alpha:  1.000e+00
	FillingsUpdate:  mu: +0.341510347  nElectrons: 331.000000
	SubspaceRotationAdjust: set factor to 0.108
ElecMinimize: Iter:   1  F: -1802.438907707383578  |grad|_K:  1.590e-04  alpha:  2.444e-01  linmin:  1.458e-02  t[s]:  34419.94
	FillingsUpdate:  mu: +0.262726864  nElectrons: 331.000000
	SubspaceRotationAdjust: set factor to 0.113
ElecMinimize: Iter:   2  F: -1802.583621585642277  |grad|_K:  5.461e-05  alpha:  1.448e-01  linmin: -3.441e-05  t[s]:  34778.37
	FillingsUpdate:  mu: +0.282825631  nElectrons: 331.000000
	SubspaceRotationAdjust: set factor to 0.101
ElecMinimize: Iter:   3  F: -1802.625283945993715  |grad|_K:  2.986e-05  alpha:  3.260e-01  linmin:  3.616e-04  t[s]:  35131.91
	FillingsUpdate:  mu: +0.282955961  nElectrons: 331.000000
	SubspaceRotationAdjust: set factor to 0.0865
ElecMinimize: Iter:   4  F: -1802.634162365770408  |grad|_K:  1.996e-05  alpha:  2.328e-01  linmin:  8.785e-06  t[s]:  35492.64
	FillingsUpdate:  mu: +0.280243110  nElectrons: 331.000000
	SubspaceRotationAdjust: set factor to 0.127
ElecMinimize: Iter:   5  F: -1802.642668392520818  |grad|_K:  1.884e-05  alpha:  4.979e-01  linmin:  1.557e-05  t[s]:  35857.75
	FillingsUpdate:  mu: +0.285324282  nElectrons: 331.000000
	SubspaceRotationAdjust: set factor to 0.0998
ElecMinimize: Iter:   6  F: -1802.650834108101662  |grad|_K:  2.409e-05  alpha:  5.373e-01  linmin:  1.606e-04  t[s]:  36214.03
	FillingsUpdate:  mu: +0.286129731  nElectrons: 331.000000
	SubspaceRotationAdjust: set factor to 0.104
ElecMinimize: Iter:   7  F: -1802.659291127663209  |grad|_K:  1.859e-05  alpha:  3.485e-01  linmin:  5.980e-06  t[s]:  36573.27
	FillingsUpdate:  mu: +0.287870284  nElectrons: 331.000000
	SubspaceRotationAdjust: set factor to 0.122
ElecMinimize: Iter:   8  F: -1802.667463989866974  |grad|_K:  1.806e-05  alpha:  5.500e-01  linmin: -4.100e-05  t[s]:  36925.62
	FillingsUpdate:  mu: +0.287522117  nElectrons: 331.000000
	SubspaceRotationAdjust: set factor to 0.102
ElecMinimize: Iter:   9  F: -1802.673114198325720  |grad|_K:  1.764e-05  alpha:  3.967e-01  linmin:  2.752e-05  t[s]:  37284.70
	FillingsUpdate:  mu: +0.283116618  nElectrons: 331.000000
	SubspaceRotationAdjust: set factor to 0.11
ElecMinimize: Iter:  10  F: -1802.677178139593025  |grad|_K:  9.778e-06  alpha:  3.064e-01  linmin: -2.530e-05  t[s]:  37639.78
	FillingsUpdate:  mu: +0.282983740  nElectrons: 331.000000
	SubspaceRotationAdjust: set factor to 0.114
ElecMinimize: Iter:  11  F: -1802.678794403058191  |grad|_K:  6.907e-06  alpha:  3.926e-01  linmin: -2.863e-05  t[s]:  37998.04
	FillingsUpdate:  mu: +0.283020178  nElectrons: 331.000000
	SubspaceRotationAdjust: set factor to 0.0844
ElecMinimize: Iter:  12  F: -1802.679368610477695  |grad|_K:  4.732e-06  alpha:  2.797e-01  linmin:  2.458e-06  t[s]:  38352.53
	FillingsUpdate:  mu: +0.282680039  nElectrons: 331.000000
	SubspaceRotationAdjust: set factor to 0.0976
ElecMinimize: Iter:  13  F: -1802.679691151504812  |grad|_K:  2.675e-06  alpha:  3.356e-01  linmin: -1.728e-05  t[s]:  38714.66
	FillingsUpdate:  mu: +0.282524798  nElectrons: 331.000000
	SubspaceRotationAdjust: set factor to 0.109
ElecMinimize: Iter:  14  F: -1802.679806833165912  |grad|_K:  1.934e-06  alpha:  3.764e-01  linmin: -7.968e-06  t[s]:  39076.19
	FillingsUpdate:  mu: +0.282485623  nElectrons: 331.000000
	SubspaceRotationAdjust: set factor to 0.101
ElecMinimize: Iter:  15  F: -1802.679861058260940  |grad|_K:  1.398e-06  alpha:  3.377e-01  linmin:  2.182e-06  t[s]:  39437.00
	FillingsUpdate:  mu: +0.282408025  nElectrons: 331.000000
	SubspaceRotationAdjust: set factor to 0.117
ElecMinimize: Iter:  16  F: -1802.679896359852137  |grad|_K:  1.107e-06  alpha:  4.207e-01  linmin: -7.601e-06  t[s]:  39796.05
	FillingsUpdate:  mu: +0.282373470  nElectrons: 331.000000
	SubspaceRotationAdjust: set factor to 0.148
ElecMinimize: Iter:  17  F: -1802.679918862461591  |grad|_K:  9.256e-07  alpha:  4.276e-01  linmin: -1.416e-06  t[s]:  40151.17
	FillingsUpdate:  mu: +0.282382327  nElectrons: 331.000000
	SubspaceRotationAdjust: set factor to 0.137
ElecMinimize: Iter:  18  F: -1802.679936068707775  |grad|_K:  9.550e-07  alpha:  4.680e-01  linmin:  3.348e-06  t[s]:  40508.19
	FillingsUpdate:  mu: +0.282377603  nElectrons: 331.000000
	SubspaceRotationAdjust: set factor to 0.113
ElecMinimize: Iter:  19  F: -1802.679947358453319  |grad|_K:  7.974e-07  alpha:  2.885e-01  linmin:  7.772e-07  t[s]:  40869.81
	FillingsUpdate:  mu: +0.282439112  nElectrons: 331.000000
	SubspaceRotationAdjust: set factor to 0.135
ElecMinimize: Iter:  20  F: -1802.679959940070148  |grad|_K:  5.748e-07  alpha:  4.611e-01  linmin:  2.227e-06  t[s]:  41231.55
	FillingsUpdate:  mu: +0.282429496  nElectrons: 331.000000
	SubspaceRotationAdjust: set factor to 0.145
ElecMinimize: Iter:  21  F: -1802.679966437906387  |grad|_K:  4.805e-07  alpha:  4.584e-01  linmin:  1.064e-06  t[s]:  41587.83
	FillingsUpdate:  mu: +0.282404998  nElectrons: 331.000000
	SubspaceRotationAdjust: set factor to 0.123
ElecMinimize: Iter:  22  F: -1802.679969423449165  |grad|_K:  3.912e-07  alpha:  3.013e-01  linmin: -8.597e-08  t[s]:  41946.75
	FillingsUpdate:  mu: +0.282413774  nElectrons: 331.000000
	SubspaceRotationAdjust: set factor to 0.116
ElecMinimize: Iter:  23  F: -1802.679971609324639  |grad|_K:  2.869e-07  alpha:  3.328e-01  linmin:  8.725e-07  t[s]:  42300.70
	FillingsUpdate:  mu: +0.282409107  nElectrons: 331.000000
	SubspaceRotationAdjust: set factor to 0.145
ElecMinimize: Iter:  24  F: -1802.679972945406462  |grad|_K:  1.966e-07  alpha:  3.782e-01  linmin: -9.443e-07  t[s]:  42657.30
	FillingsUpdate:  mu: +0.282390781  nElectrons: 331.000000
	SubspaceRotationAdjust: set factor to 0.161
ElecMinimize: Iter:  25  F: -1802.679973680353442  |grad|_K:  1.652e-07  alpha:  4.429e-01  linmin: -1.645e-06  t[s]:  43017.55
	FillingsUpdate:  mu: +0.282383660  nElectrons: 331.000000
	SubspaceRotationAdjust: set factor to 0.136
ElecMinimize: Iter:  26  F: -1802.679974038814180  |grad|_K:  1.519e-07  alpha:  3.059e-01  linmin: -8.351e-07  t[s]:  43378.46
	FillingsUpdate:  mu: +0.282371415  nElectrons: 331.000000
	SubspaceRotationAdjust: set factor to 0.124
ElecMinimize: Iter:  27  F: -1802.679974336878558  |grad|_K:  9.698e-08  alpha:  3.009e-01  linmin:  1.894e-07  t[s]:  43738.56
	FillingsUpdate:  mu: +0.282371535  nElectrons: 331.000000
	SubspaceRotationAdjust: set factor to 0.149
ElecMinimize: Iter:  28  F: -1802.679974517104938  |grad|_K:  7.250e-08  alpha:  4.457e-01  linmin: -4.065e-06  t[s]:  44096.67
	FillingsUpdate:  mu: +0.282369664  nElectrons: 331.000000
	SubspaceRotationAdjust: set factor to 0.171
ElecMinimize: Iter:  29  F: -1802.679974615437231  |grad|_K:  5.749e-08  alpha:  4.351e-01  linmin: -3.294e-06  t[s]:  44449.59
	FillingsUpdate:  mu: +0.282367983  nElectrons: 331.000000
	SubspaceRotationAdjust: set factor to 0.155
ElecMinimize: Iter:  30  F: -1802.679974666318458  |grad|_K:  5.228e-08  alpha:  3.590e-01  linmin: -1.242e-07  t[s]:  44813.02
	FillingsUpdate:  mu: +0.282371902  nElectrons: 331.000000
	SubspaceRotationAdjust: set factor to 0.123
ElecMinimize: Iter:  31  F: -1802.679974695118744  |grad|_K:  3.877e-08  alpha:  2.440e-01  linmin:  2.501e-06  t[s]:  45167.08
	FillingsUpdate:  mu: +0.282375480  nElectrons: 331.000000
	SubspaceRotationAdjust: set factor to 0.142
ElecMinimize: Iter:  32  F: -1802.679974719338816  |grad|_K:  2.590e-08  alpha:  3.746e-01  linmin: -7.226e-06  t[s]:  45526.59
	FillingsUpdate:  mu: +0.282375914  nElectrons: 331.000000
	SubspaceRotationAdjust: set factor to 0.168
ElecMinimize: Iter:  33  F: -1802.679974732000119  |grad|_K:  1.930e-08  alpha:  4.411e-01  linmin: -7.846e-07  t[s]:  45887.10
	FillingsUpdate:  mu: +0.282377182  nElectrons: 331.000000
	SubspaceRotationAdjust: set factor to 0.165
ElecMinimize: Iter:  34  F: -1802.679974738345663  |grad|_K:  1.843e-08  alpha:  3.912e-01  linmin:  2.420e-06  t[s]:  46244.77
	FillingsUpdate:  mu: +0.282377759  nElectrons: 331.000000
	SubspaceRotationAdjust: set factor to 0.136
ElecMinimize: Iter:  35  F: -1802.679974742081185  |grad|_K:  1.537e-08  alpha:  2.642e-01  linmin:  6.580e-07  t[s]:  46606.29
ElecMinimize: Converged (|Delta F|<1.000000e-08 for 2 iters).
Setting wave functions to eigenvectors of Hamiltonian

# Ionic positions in lattice coordinates:
ion O   0.500000000000000   0.315235829569767   0.334575286224119 1
ion C   0.500000000000000   0.494140953849783   0.293653785849302 1
ion H   0.500000000000000   0.682771790731895   0.324967162925644 1
ion Pt   0.000000000000000   0.000000000000000  -0.166660000000000 0
ion Pt   0.000000000000000   0.500000000000000  -0.166660000000000 0
ion Pt   0.500000000000000   0.000000000000000  -0.166660000000000 0
ion Pt   0.500000000000000   0.500000000000000  -0.166660000000000 0
ion Pt   0.250000000000000   0.250000000000000  -0.083330000000000 0
ion Pt   0.250000000000000   0.750000000000000  -0.083330000000000 0
ion Pt   0.750000000000000   0.250000000000000  -0.083330000000000 0
ion Pt   0.750000000000000   0.750000000000000  -0.083330000000000 0
ion Pt   0.000000000000000  -0.000018018253767  -0.000148261055597 1
ion Pt   0.000000000000000   0.500023920034361   0.000076782098128 1
ion Pt   0.500000000000000  -0.000005872341319   0.000179441554715 1
ion Pt   0.500000000000000   0.499933722526857   0.000588919270961 1
ion Pt   0.249686419934316   0.249796690599108   0.085820884161419 1
ion Pt   0.249689808929262   0.750224876381492   0.085831848243971 1
ion Pt   0.750313580065684   0.249796690599108   0.085820884161419 1
ion Pt   0.750310191070738   0.750224876381492   0.085831848243971 1
ion Pt   0.000000000000000   0.000001932161954   0.167598710769795 1
ion Pt   0.000000000000000   0.500017292861747   0.167654929059856 1
ion Pt   0.500000000000000   0.000252548254624   0.167416328957094 1
ion Pt   0.500000000000000   0.500649081202207   0.171620164014513 1


# Forces in Lattice coordinates:
force O   0.000000000000000  -0.210304359188770   0.266312702149495 1
force C   0.000000000000000   0.291482041344366  -0.443676085257825 1
force H   0.000000000000000  -0.106385271224326  -0.365720464671208 1
force Pt   0.000000000000000  -0.000129708777447  -0.325867977030971 0
force Pt   0.000000000000000   0.000092711175041  -0.317266590700196 0
force Pt   0.000000000000000  -0.001046951897827  -0.301522568535707 0
force Pt   0.000000000000000   0.000781771133443  -0.392084348655169 0
force Pt   0.014306116540620   0.007583007130243  -0.749950289508668 0
force Pt   0.014953973355988  -0.007708978347755  -0.748484127357113 0
force Pt  -0.014306116540620   0.007583007130243  -0.749950289508668 0
force Pt  -0.014953973355988  -0.007708978347755  -0.748484127357113 0
force Pt   0.000000000000000   0.000330423694919   0.074509986782608 1
force Pt   0.000000000000000  -0.000118397714327   0.147793977353755 1
force Pt   0.000000000000000  -0.001055433330793   0.175589940649613 1
force Pt   0.000000000000000   0.000497998035881   0.347431340070663 1
force Pt   0.010282515701962   0.013288868629739   0.582176606848433 1
force Pt   0.009183485855587  -0.009460034700402   0.580253899000589 1
force Pt  -0.010282515701962   0.013288868629739   0.582176606848433 1
force Pt  -0.009183485855587  -0.009460034700402   0.580253899000589 1
force Pt   0.000000000000000   0.000209524734676   0.347867998833799 1
force Pt   0.000000000000000   0.000549980859596   0.349184714733194 1
force Pt   0.000000000000000   0.010289077463496   0.284632621759791 1
force Pt   0.000000000000000   0.007884264067518   0.862903098709892 1

# Energy components:
   Eewald =     2278.4971243735512871
       EH =     3956.9572468954643227
     Eloc =    -8354.7229261923457670
      Enl =      -17.6157054602626637
      Exc =     -572.3857735689446145
 Exc_core =      324.9288874688914461
       KE =      581.8885288792120036
-------------------------------------
     Etot =    -1802.4526176044337262
       TS =        0.2273571376474393
-------------------------------------
        F =    -1802.6799747420811855

IonicMinimize: Iter:   2  F: -1802.679974742081185  |grad|_K:  9.903e-03  alpha:  5.505e-01  linmin: -5.293e-01  t[s]:  46665.18

#--- Lowdin population analysis ---
# oxidation-state O -0.178
# oxidation-state C +0.264
# oxidation-state H +0.216
# oxidation-state Pt +0.071 +0.071 +0.071 +0.067 -0.046 -0.046 -0.046 -0.046 +0.015 +0.012 +0.013 -0.008 -0.048 -0.049 -0.048 -0.049 +0.067 +0.068 +0.051 -0.048


-------- Electronic minimization -----------
	FillingsUpdate:  mu: +0.411836979  nElectrons: 331.000000
ElecMinimize: Iter:   0  F: -1801.346899958135054  |grad|_K:  3.246e-04  alpha:  1.000e+00
	FillingsUpdate:  mu: +0.353859444  nElectrons: 331.000000
	SubspaceRotationAdjust: set factor to 0.0815
ElecMinimize: Iter:   1  F: -1802.378074368094303  |grad|_K:  1.624e-04  alpha:  2.523e-01  linmin:  1.852e-02  t[s]:  47290.81
	FillingsUpdate:  mu: +0.264442619  nElectrons: 331.000000
	SubspaceRotationAdjust: set factor to 0.0743
ElecMinimize: Iter:   2  F: -1802.565355220643823  |grad|_K:  5.520e-05  alpha:  1.797e-01  linmin:  1.315e-04  t[s]:  47645.54
	FillingsUpdate:  mu: +0.279940325  nElectrons: 331.000000
	SubspaceRotationAdjust: set factor to 0.0888
ElecMinimize: Iter:   3  F: -1802.610627623102346  |grad|_K:  2.694e-05  alpha:  3.469e-01  linmin:  2.086e-04  t[s]:  47999.65
	FillingsUpdate:  mu: +0.281876589  nElectrons: 331.000000
	SubspaceRotationAdjust: set factor to 0.0763
ElecMinimize: Iter:   4  F: -1802.621606170906034  |grad|_K:  2.061e-05  alpha:  3.531e-01  linmin:  5.637e-06  t[s]:  48361.06
	FillingsUpdate:  mu: +0.279858184  nElectrons: 331.000000
	SubspaceRotationAdjust: set factor to 0.0928
ElecMinimize: Iter:   5  F: -1802.632879395332338  |grad|_K:  2.224e-05  alpha:  6.208e-01  linmin:  1.137e-04  t[s]:  48711.77
	FillingsUpdate:  mu: +0.286890315  nElectrons: 331.000000
	SubspaceRotationAdjust: set factor to 0.104
ElecMinimize: Iter:   6  F: -1802.647407844249074  |grad|_K:  2.365e-05  alpha:  6.920e-01  linmin:  9.356e-05  t[s]:  49070.98
	FillingsUpdate:  mu: +0.288968612  nElectrons: 331.000000
	SubspaceRotationAdjust: set factor to 0.0944
ElecMinimize: Iter:   7  F: -1802.658588640068729  |grad|_K:  2.449e-05  alpha:  4.777e-01  linmin: -1.639e-05  t[s]:  49431.43
	FillingsUpdate:  mu: +0.286828812  nElectrons: 331.000000
	SubspaceRotationAdjust: set factor to 0.0866
ElecMinimize: Iter:   8  F: -1802.671470104007994  |grad|_K:  2.197e-05  alpha:  5.003e-01  linmin:  1.691e-04  t[s]:  49787.83
	FillingsUpdate:  mu: +0.282442656  nElectrons: 331.000000
	SubspaceRotationAdjust: set factor to 0.11
ElecMinimize: Iter:   9  F: -1802.682011851568404  |grad|_K:  1.451e-05  alpha:  5.228e-01  linmin:  1.508e-05  t[s]:  50141.22
	FillingsUpdate:  mu: +0.282444804  nElectrons: 331.000000
	SubspaceRotationAdjust: set factor to 0.0871
ElecMinimize: Iter:  10  F: -1802.685401617522075  |grad|_K:  1.015e-05  alpha:  3.772e-01  linmin: -1.694e-05  t[s]:  50494.52
	FillingsUpdate:  mu: +0.282720659  nElectrons: 331.000000
	SubspaceRotationAdjust: set factor to 0.0664
ElecMinimize: Iter:  11  F: -1802.686822763241707  |grad|_K:  6.358e-06  alpha:  3.207e-01  linmin:  1.754e-05  t[s]:  50854.71
	FillingsUpdate:  mu: +0.282144832  nElectrons: 331.000000
	SubspaceRotationAdjust: set factor to 0.0849
ElecMinimize: Iter:  12  F: -1802.687526342008368  |grad|_K:  3.550e-06  alpha:  4.058e-01  linmin: -2.276e-05  t[s]:  51211.27
	FillingsUpdate:  mu: +0.281776122  nElectrons: 331.000000
	SubspaceRotationAdjust: set factor to 0.0972
ElecMinimize: Iter:  13  F: -1802.687767814729568  |grad|_K:  2.466e-06  alpha:  4.461e-01  linmin: -1.468e-05  t[s]:  51565.81
	FillingsUpdate:  mu: +0.281622412  nElectrons: 331.000000
	SubspaceRotationAdjust: set factor to 0.0998
ElecMinimize: Iter:  14  F: -1802.687875229668634  |grad|_K:  1.988e-06  alpha:  4.116e-01  linmin:  1.364e-06  t[s]:  51923.49
	FillingsUpdate:  mu: +0.281458476  nElectrons: 331.000000
	SubspaceRotationAdjust: set factor to 0.115
ElecMinimize: Iter:  15  F: -1802.687953650407735  |grad|_K:  1.491e-06  alpha:  4.624e-01  linmin: -2.480e-05  t[s]:  52282.65
	FillingsUpdate:  mu: +0.281519054  nElectrons: 331.000000
	SubspaceRotationAdjust: set factor to 0.142
ElecMinimize: Iter:  16  F: -1802.688007291228359  |grad|_K:  1.306e-06  alpha:  5.618e-01  linmin:  2.194e-06  t[s]:  52641.99
	FillingsUpdate:  mu: +0.281619308  nElectrons: 331.000000
	SubspaceRotationAdjust: set factor to 0.168
ElecMinimize: Iter:  17  F: -1802.688048217198684  |grad|_K:  1.211e-06  alpha:  5.592e-01  linmin: -3.138e-08  t[s]:  52999.95
	FillingsUpdate:  mu: +0.281700414  nElectrons: 331.000000
	SubspaceRotationAdjust: set factor to 0.172
ElecMinimize: Iter:  18  F: -1802.688077668460892  |grad|_K:  1.117e-06  alpha:  4.682e-01  linmin: -2.516e-06  t[s]:  53355.83
	FillingsUpdate:  mu: +0.281767556  nElectrons: 331.000000
	SubspaceRotationAdjust: set factor to 0.129
ElecMinimize: Iter:  19  F: -1802.688091395803440  |grad|_K:  9.809e-07  alpha:  2.564e-01  linmin: -1.882e-06  t[s]:  53716.29
	FillingsUpdate:  mu: +0.281735187  nElectrons: 331.000000
	SubspaceRotationAdjust: set factor to 0.128
ElecMinimize: Iter:  20  F: -1802.688104259769034  |grad|_K:  6.062e-07  alpha:  3.115e-01  linmin: -3.182e-06  t[s]:  54076.79
	FillingsUpdate:  mu: +0.281707793  nElectrons: 331.000000
	SubspaceRotationAdjust: set factor to 0.157
ElecMinimize: Iter:  21  F: -1802.688111743652371  |grad|_K:  4.258e-07  alpha:  4.745e-01  linmin: -1.105e-06  t[s]:  54440.19
	FillingsUpdate:  mu: +0.281715984  nElectrons: 331.000000
	SubspaceRotationAdjust: set factor to 0.191
ElecMinimize: Iter:  22  F: -1802.688115328788399  |grad|_K:  3.299e-07  alpha:  4.607e-01  linmin:  1.613e-07  t[s]:  54795.83
	FillingsUpdate:  mu: +0.281688036  nElectrons: 331.000000
	SubspaceRotationAdjust: set factor to 0.151
ElecMinimize: Iter:  23  F: -1802.688117051623976  |grad|_K:  3.519e-07  alpha:  3.689e-01  linmin: -7.129e-08  t[s]:  55150.43
	FillingsUpdate:  mu: +0.281666861  nElectrons: 331.000000
	SubspaceRotationAdjust: set factor to 0.124
ElecMinimize: Iter:  24  F: -1802.688118286110239  |grad|_K:  2.566e-07  alpha:  2.323e-01  linmin: -2.213e-07  t[s]:  55508.03
	FillingsUpdate:  mu: +0.281631923  nElectrons: 331.000000
	SubspaceRotationAdjust: set factor to 0.154
ElecMinimize: Iter:  25  F: -1802.688119407274598  |grad|_K:  1.767e-07  alpha:  3.965e-01  linmin: -3.710e-06  t[s]:  55868.36
	FillingsUpdate:  mu: +0.281624883  nElectrons: 331.000000
	SubspaceRotationAdjust: set factor to 0.172
ElecMinimize: Iter:  26  F: -1802.688120009240265  |grad|_K:  1.551e-07  alpha:  4.491e-01  linmin: -5.441e-07  t[s]:  56220.15
	FillingsUpdate:  mu: +0.281626670  nElectrons: 331.000000
	SubspaceRotationAdjust: set factor to 0.138
ElecMinimize: Iter:  27  F: -1802.688120300374749  |grad|_K:  1.451e-07  alpha:  2.820e-01  linmin:  1.846e-06  t[s]:  56577.33
	FillingsUpdate:  mu: +0.281620679  nElectrons: 331.000000
	SubspaceRotationAdjust: set factor to 0.13
ElecMinimize: Iter:  28  F: -1802.688120557932962  |grad|_K:  8.498e-08  alpha:  2.848e-01  linmin: -1.344e-06  t[s]:  56932.07
	FillingsUpdate:  mu: +0.281627512  nElectrons: 331.000000
	SubspaceRotationAdjust: set factor to 0.164
ElecMinimize: Iter:  29  F: -1802.688120699790943  |grad|_K:  5.963e-08  alpha:  4.572e-01  linmin: -1.849e-05  t[s]:  57289.25
	FillingsUpdate:  mu: +0.281631812  nElectrons: 331.000000
	SubspaceRotationAdjust: set factor to 0.179
ElecMinimize: Iter:  30  F: -1802.688120768043518  |grad|_K:  4.979e-08  alpha:  4.472e-01  linmin:  1.684e-05  t[s]:  57646.46
	FillingsUpdate:  mu: +0.281632194  nElectrons: 331.000000
	SubspaceRotationAdjust: set factor to 0.15
ElecMinimize: Iter:  31  F: -1802.688120798373120  |grad|_K:  4.621e-08  alpha:  2.857e-01  linmin:  6.757e-06  t[s]:  58009.91
	FillingsUpdate:  mu: +0.281636339  nElectrons: 331.000000
	SubspaceRotationAdjust: set factor to 0.146
ElecMinimize: Iter:  32  F: -1802.688120822800784  |grad|_K:  3.139e-08  alpha:  2.656e-01  linmin: -3.905e-06  t[s]:  58370.86
	FillingsUpdate:  mu: +0.281640130  nElectrons: 331.000000
	SubspaceRotationAdjust: set factor to 0.182
ElecMinimize: Iter:  33  F: -1802.688120843301704  |grad|_K:  2.556e-08  alpha:  4.812e-01  linmin: -5.507e-05  t[s]:  58734.18
	FillingsUpdate:  mu: +0.281640980  nElectrons: 331.000000
	SubspaceRotationAdjust: set factor to 0.221
ElecMinimize: Iter:  34  F: -1802.688120858485718  |grad|_K:  2.112e-08  alpha:  5.335e-01  linmin: -3.819e-06  t[s]:  59089.00
	FillingsUpdate:  mu: +0.281641287  nElectrons: 331.000000
	SubspaceRotationAdjust: set factor to 0.237
ElecMinimize: Iter:  35  F: -1802.688120867593398  |grad|_K:  1.968e-08  alpha:  4.725e-01  linmin:  1.153e-05  t[s]:  59449.63
	FillingsUpdate:  mu: +0.281640589  nElectrons: 331.000000
	SubspaceRotationAdjust: set factor to 0.172
ElecMinimize: Iter:  36  F: -1802.688120870706371  |grad|_K:  1.813e-08  alpha:  1.902e-01  linmin: -6.218e-06  t[s]:  59809.61
ElecMinimize: Converged (|Delta F|<1.000000e-08 for 2 iters).
Setting wave functions to eigenvectors of Hamiltonian

# Ionic positions in lattice coordinates:
ion O   0.500000000000000   0.315372838840155   0.334174851482689 1
ion C   0.500000000000000   0.494442493568162   0.292856349108949 1
ion H   0.500000000000000   0.681420850960143   0.324131333561887 1
ion Pt   0.000000000000000   0.000000000000000  -0.166660000000000 0
ion Pt   0.000000000000000   0.500000000000000  -0.166660000000000 0
ion Pt   0.500000000000000   0.000000000000000  -0.166660000000000 0
ion Pt   0.500000000000000   0.500000000000000  -0.166660000000000 0
ion Pt   0.250000000000000   0.250000000000000  -0.083330000000000 0
ion Pt   0.250000000000000   0.750000000000000  -0.083330000000000 0
ion Pt   0.750000000000000   0.250000000000000  -0.083330000000000 0
ion Pt   0.750000000000000   0.750000000000000  -0.083330000000000 0
ion Pt   0.000000000000000  -0.000015095716834   0.000051771844345 1
ion Pt   0.000000000000000   0.500027303902123   0.000516258846248 1
ion Pt   0.500000000000000  -0.000030858698469   0.000713703911614 1
ion Pt   0.500000000000000   0.499922909642349   0.001655223535795 1
ion Pt   0.249755882207494   0.250076356077317   0.087889377351864 1
ion Pt   0.249746139465980   0.750040849613793   0.087898217102904 1
ion Pt   0.750244117792506   0.250076356077317   0.087889377351864 1
ion Pt   0.750253860534020   0.750040849613793   0.087898217102904 1
ion Pt   0.000000000000000   0.000010384260499   0.168735218668852 1
ion Pt   0.000000000000000   0.500034527335274   0.168808291971872 1
ion Pt   0.500000000000000   0.000590224805242   0.168366614616572 1
ion Pt   0.500000000000000   0.501056050929194   0.174830854783520 1


# Forces in Lattice coordinates:
force O   0.000000000000000  -0.195738158284337   0.254598854246741 1
force C   0.000000000000000   0.230409969177167   0.026548374326901 1
force H   0.000000000000000  -0.067893269631420  -0.298281663893489 1
force Pt   0.000000000000000  -0.000132339432868  -0.312013895867448 0
force Pt   0.000000000000000   0.000109025377449  -0.292259968484355 0
force Pt   0.000000000000000  -0.001038872487720  -0.269319011559245 0
force Pt   0.000000000000000   0.000767114076847  -0.341441026161521 0
force Pt   0.023029813555362   0.011526179642037  -0.647405054087041 0
force Pt   0.023577887181351  -0.011712637360330  -0.646047148148300 0
force Pt  -0.023029813555362   0.011526179642037  -0.647405054087041 0
force Pt  -0.023577887181351  -0.011712637360330  -0.646047148148300 0
force Pt   0.000000000000000   0.000525812210917   0.168637973110866 1
force Pt   0.000000000000000  -0.000280288240598   0.208608654211888 1
force Pt   0.000000000000000  -0.000713815428037   0.221775552141175 1
force Pt   0.000000000000000   0.000770419371977   0.338293535053493 1
force Pt   0.012287897228251   0.014604530547495   0.409974062976910 1
force Pt   0.011650573373438  -0.009550007756122   0.408305290979889 1
force Pt  -0.012287897228251   0.014604530547495   0.409974062976910 1
force Pt  -0.011650573373438  -0.009550007756122   0.408305290979889 1
force Pt   0.000000000000000   0.000661705137757   0.353629947691990 1
force Pt   0.000000000000000   0.000848271227208   0.362231273080441 1
force Pt   0.000000000000000   0.010712264526648   0.323064226199701 1
force Pt   0.000000000000000   0.011583332658026   0.261054061902949 1

# Energy components:
   Eewald =     2249.2035727285360736
       EH =     3927.6377046494594651
     Eloc =    -8296.0763744872765528
      Enl =      -17.6245770766385625
      Exc =     -572.3528884877407563
 Exc_core =      324.9288855265166376
       KE =      581.8230166967912282
-------------------------------------
     Etot =    -1802.4606604503526341
       TS =        0.2274604203536399
-------------------------------------
        F =    -1802.6881208707063706

IonicMinimize: Iter:   3  F: -1802.688120870706371  |grad|_K:  7.364e-03  alpha:  3.975e-01  linmin: -5.059e-01  t[s]:  59869.10

#--- Lowdin population analysis ---
# oxidation-state O -0.184
# oxidation-state C +0.257
# oxidation-state H +0.220
# oxidation-state Pt +0.073 +0.073 +0.072 +0.068 -0.046 -0.046 -0.046 -0.046 +0.014 +0.010 +0.011 -0.011 -0.050 -0.052 -0.050 -0.052 +0.070 +0.071 +0.050 -0.033


-------- Electronic minimization -----------
	FillingsUpdate:  mu: +0.494248625  nElectrons: 331.000000
ElecMinimize: Iter:   0  F: -1799.591878729683231  |grad|_K:  5.212e-04  alpha:  1.000e+00
	FillingsUpdate:  mu: +0.411231439  nElectrons: 331.000000
	SubspaceRotationAdjust: set factor to 0.101
ElecMinimize: Iter:   1  F: -1801.745690678058736  |grad|_K:  3.380e-04  alpha:  2.358e-01  linmin:  3.002e-02  t[s]:  60498.69
	FillingsUpdate:  mu: +0.259598627  nElectrons: 331.000000
	SubspaceRotationAdjust: set factor to 0.156
ElecMinimize: Iter:   2  F: -1802.361511286996347  |grad|_K:  1.106e-04  alpha:  1.505e-01  linmin:  2.263e-04  t[s]:  60856.17
	FillingsUpdate:  mu: +0.293341188  nElectrons: 331.000000
	SubspaceRotationAdjust: set factor to 0.107
ElecMinimize: Iter:   3  F: -1802.508856013022523  |grad|_K:  7.660e-05  alpha:  2.846e-01  linmin:  2.481e-03  t[s]:  61215.54
	FillingsUpdate:  mu: +0.282605118  nElectrons: 331.000000
	SubspaceRotationAdjust: set factor to 0.11
ElecMinimize: Iter:   4  F: -1802.548267572042050  |grad|_K:  3.776e-05  alpha:  1.593e-01  linmin: -9.816e-05  t[s]:  61576.64
	FillingsUpdate:  mu: +0.290460320  nElectrons: 331.000000
	SubspaceRotationAdjust: set factor to 0.0798
ElecMinimize: Iter:   5  F: -1802.575125188045376  |grad|_K:  4.022e-05  alpha:  4.360e-01  linmin: -1.861e-04  t[s]:  61934.67
	FillingsUpdate:  mu: +0.280524897  nElectrons: 331.000000
	SubspaceRotationAdjust: set factor to 0.0735
ElecMinimize: Iter:   6  F: -1802.596420822877690  |grad|_K:  3.527e-05  alpha:  2.995e-01  linmin:  1.609e-05  t[s]:  62296.51
	FillingsUpdate:  mu: +0.295911248  nElectrons: 331.000000
	SubspaceRotationAdjust: set factor to 0.0571
ElecMinimize: Iter:   7  F: -1802.619037981599831  |grad|_K:  3.555e-05  alpha:  4.272e-01  linmin:  2.425e-04  t[s]:  62653.67
	FillingsUpdate:  mu: +0.290069231  nElectrons: 331.000000
	SubspaceRotationAdjust: set factor to 0.0667
ElecMinimize: Iter:   8  F: -1802.636616197849889  |grad|_K:  3.012e-05  alpha:  3.335e-01  linmin: -6.070e-05  t[s]:  63012.58
	FillingsUpdate:  mu: +0.292764114  nElectrons: 331.000000
	SubspaceRotationAdjust: set factor to 0.0721
ElecMinimize: Iter:   9  F: -1802.653475064455279  |grad|_K:  2.964e-05  alpha:  4.277e-01  linmin: -1.313e-04  t[s]:  63376.08
	FillingsUpdate:  mu: +0.287910957  nElectrons: 331.000000
	SubspaceRotationAdjust: set factor to 0.0683
ElecMinimize: Iter:  10  F: -1802.669526046906412  |grad|_K:  2.829e-05  alpha:  4.188e-01  linmin:  1.337e-04  t[s]:  63734.40
	FillingsUpdate:  mu: +0.287038010  nElectrons: 331.000000
	SubspaceRotationAdjust: set factor to 0.0851
ElecMinimize: Iter:  11  F: -1802.681699155317119  |grad|_K:  2.300e-05  alpha:  3.611e-01  linmin:  2.349e-05  t[s]:  64094.88
	FillingsUpdate:  mu: +0.283124835  nElectrons: 331.000000
	SubspaceRotationAdjust: set factor to 0.0775
ElecMinimize: Iter:  12  F: -1802.688626400767134  |grad|_K:  1.684e-05  alpha:  3.070e-01  linmin: -5.602e-05  t[s]:  64450.61
	FillingsUpdate:  mu: +0.282013924  nElectrons: 331.000000
	SubspaceRotationAdjust: set factor to 0.0951
ElecMinimize: Iter:  13  F: -1802.692562883423989  |grad|_K:  1.154e-05  alpha:  3.215e-01  linmin: -5.806e-06  t[s]:  64811.48
	FillingsUpdate:  mu: +0.281341069  nElectrons: 331.000000
	SubspaceRotationAdjust: set factor to 0.0824
ElecMinimize: Iter:  14  F: -1802.694301481443745  |grad|_K:  8.356e-06  alpha:  3.038e-01  linmin:  2.321e-05  t[s]:  65169.08
	FillingsUpdate:  mu: +0.281142378  nElectrons: 331.000000
	SubspaceRotationAdjust: set factor to 0.103
ElecMinimize: Iter:  15  F: -1802.695235521966424  |grad|_K:  5.240e-06  alpha:  3.121e-01  linmin: -5.910e-06  t[s]:  65525.65
	FillingsUpdate:  mu: +0.281025595  nElectrons: 331.000000
	SubspaceRotationAdjust: set factor to 0.0967
ElecMinimize: Iter:  16  F: -1802.695618161306356  |grad|_K:  4.073e-06  alpha:  3.246e-01  linmin: -1.753e-05  t[s]:  65879.03
	FillingsUpdate:  mu: +0.280947587  nElectrons: 331.000000
	SubspaceRotationAdjust: set factor to 0.111
ElecMinimize: Iter:  17  F: -1802.695842292299631  |grad|_K:  2.836e-06  alpha:  3.146e-01  linmin:  5.404e-06  t[s]:  66239.90
	FillingsUpdate:  mu: +0.281001288  nElectrons: 331.000000
	SubspaceRotationAdjust: set factor to 0.13
ElecMinimize: Iter:  18  F: -1802.695983317633818  |grad|_K:  2.443e-06  alpha:  4.086e-01  linmin:  5.945e-06  t[s]:  66599.58
	FillingsUpdate:  mu: +0.281010062  nElectrons: 331.000000
	SubspaceRotationAdjust: set factor to 0.126
ElecMinimize: Iter:  19  F: -1802.696065468942834  |grad|_K:  2.284e-06  alpha:  3.208e-01  linmin: -3.984e-06  t[s]:  66958.54
	FillingsUpdate:  mu: +0.281197637  nElectrons: 331.000000
	SubspaceRotationAdjust: set factor to 0.147
ElecMinimize: Iter:  20  F: -1802.696167146147445  |grad|_K:  2.063e-06  alpha:  4.540e-01  linmin:  6.156e-06  t[s]:  67316.56
	FillingsUpdate:  mu: +0.281290789  nElectrons: 331.000000
	SubspaceRotationAdjust: set factor to 0.16
ElecMinimize: Iter:  21  F: -1802.696249062054676  |grad|_K:  2.065e-06  alpha:  4.486e-01  linmin:  5.539e-06  t[s]:  67673.47
	FillingsUpdate:  mu: +0.281286525  nElectrons: 331.000000
	SubspaceRotationAdjust: set factor to 0.127
ElecMinimize: Iter:  22  F: -1802.696298859700164  |grad|_K:  1.777e-06  alpha:  2.725e-01  linmin:  2.295e-06  t[s]:  68029.87
	FillingsUpdate:  mu: +0.281394937  nElectrons: 331.000000
	SubspaceRotationAdjust: set factor to 0.124
ElecMinimize: Iter:  23  F: -1802.696341857157449  |grad|_K:  1.228e-06  alpha:  3.173e-01  linmin:  7.163e-06  t[s]:  68392.21
	FillingsUpdate:  mu: +0.281378665  nElectrons: 331.000000
	SubspaceRotationAdjust: set factor to 0.146
ElecMinimize: Iter:  24  F: -1802.696367386997736  |grad|_K:  8.724e-07  alpha:  3.945e-01  linmin:  1.702e-06  t[s]:  68752.20
	FillingsUpdate:  mu: +0.281306099  nElectrons: 331.000000
	SubspaceRotationAdjust: set factor to 0.12
ElecMinimize: Iter:  25  F: -1802.696377147751036  |grad|_K:  6.656e-07  alpha:  2.989e-01  linmin: -1.030e-06  t[s]:  69112.79
	FillingsUpdate:  mu: +0.281284759  nElectrons: 331.000000
	SubspaceRotationAdjust: set factor to 0.109
ElecMinimize: Iter:  26  F: -1802.696382342091283  |grad|_K:  4.355e-07  alpha:  2.731e-01  linmin:  1.686e-06  t[s]:  69471.23
	FillingsUpdate:  mu: +0.281264053  nElectrons: 331.000000
	SubspaceRotationAdjust: set factor to 0.131
[...]
FluidMinimize: Iter:   5  F: -0.002468110252150  |grad|_K:  2.683e-05  alpha:  8.073e-02  linmin:  7.059e-02  cgtest: -4.948e-01  t[s]:   4755.51
FluidMinimize: Iter:   6  F: -0.002468530606721  |grad|_K:  2.798e-05  alpha:  1.295e-03  linmin: -2.881e-02  cgtest:  9.996e-01  t[s]:   4755.81
FluidMinimize: 	Predicted alpha/alphaT>3.000000, increasing alphaT to 3.885806e-03.
FluidMinimize: Iter:   7  F: -0.002477139922254  |grad|_K:  1.251e-05  alpha:  1.115e-02  linmin: -9.213e-02  cgtest:  3.574e-01  t[s]:   4756.23
FluidMinimize: Iter:   8  F: -0.002480665015851  |grad|_K:  1.402e-05  alpha:  2.723e-02  linmin:  4.015e-02  cgtest: -2.123e-01  t[s]:   4756.53
FluidMinimize: Iter:   9  F: -0.002485072757444  |grad|_K:  1.772e-05  alpha:  3.233e-02  linmin: -6.558e-03  cgtest:  7.204e-01  t[s]:   4756.83
FluidMinimize: Iter:  10  F: -0.002490410434636  |grad|_K:  1.744e-05  alpha:  2.052e-02  linmin:  2.141e-03  cgtest: -8.220e-02  t[s]:   4757.14
FluidMinimize: Iter:  11  F: -0.002498389344428  |grad|_K:  2.188e-05  alpha:  3.858e-02  linmin:  9.503e-02  cgtest: -4.881e-01  t[s]:   4757.43
FluidMinimize: Iter:  12  F: -0.002499230515020  |grad|_K:  2.541e-05  alpha:  4.223e-03  linmin: -2.268e-02  cgtest:  9.951e-01  t[s]:   4757.74
FluidMinimize: Iter:  13  F: -0.002507265451845  |grad|_K:  1.306e-05  alpha:  1.253e-02  linmin: -1.156e-01  cgtest:  1.811e-01  t[s]:   4758.04
FluidMinimize: Iter:  14  F: -0.002510966464787  |grad|_K:  1.148e-05  alpha:  2.413e-02  linmin:  3.665e-02  cgtest: -3.973e-01  t[s]:   4758.35
FluidMinimize: Iter:  15  F: -0.002512999093510  |grad|_K:  1.627e-05  alpha:  2.462e-02  linmin:  1.545e-03  cgtest:  8.044e-01  t[s]:   4758.65
FluidMinimize: Iter:  16  F: -0.002517429069794  |grad|_K:  1.422e-05  alpha:  1.953e-02  linmin: -1.160e-02  cgtest: -9.391e-02  t[s]:   4758.96
FluidMinimize: Iter:  17  F: -0.002523425461433  |grad|_K:  1.572e-05  alpha:  3.732e-02  linmin:  5.153e-02  cgtest: -4.172e-01  t[s]:   4759.26
FluidMinimize: Iter:  18  F: -0.002528271347758  |grad|_K:  2.929e-05  alpha:  3.545e-02  linmin:  1.123e-02  cgtest:  9.245e-01  t[s]:   4759.57
FluidMinimize: Iter:  19  F: -0.002539997665600  |grad|_K:  1.601e-05  alpha:  1.928e-02  linmin:  1.308e-02  cgtest: -5.949e-02  t[s]:   4759.86
FluidMinimize: Iter:  20  F: -0.002545319924181  |grad|_K:  1.396e-05  alpha:  2.584e-02  linmin:  2.142e-02  cgtest: -1.245e-01  t[s]:   4760.18
FluidMinimize: Iter:  21  F: -0.002552246279584  |grad|_K:  1.209e-05  alpha:  4.420e-02  linmin: -2.002e-02  cgtest:  4.777e-01  t[s]:   4760.49
FluidMinimize: Iter:  22  F: -0.002557226331627  |grad|_K:  9.305e-06  alpha:  3.679e-02  linmin: -1.795e-03  cgtest: -1.089e-01  t[s]:   4760.80
FluidMinimize: Iter:  23  F: -0.002561354613056  |grad|_K:  1.906e-05  alpha:  5.610e-02  linmin:  1.240e-02  cgtest:  5.817e-02  t[s]:   4761.10
FluidMinimize: Iter:  24  F: -0.002567947243793  |grad|_K:  1.629e-05  alpha:  2.526e-02  linmin:  5.442e-03  cgtest:  6.646e-01  t[s]:   4761.40
FluidMinimize: Iter:  25  F: -0.002571864822202  |grad|_K:  1.270e-05  alpha:  1.745e-02  linmin: -1.382e-03  cgtest: -1.097e-02  t[s]:   4761.70
FluidMinimize: Iter:  26  F: -0.002576228854064  |grad|_K:  9.862e-06  alpha:  3.468e-02  linmin:  1.202e-01  cgtest: -5.500e-01  t[s]:   4762.01
FluidMinimize: Iter:  27  F: -0.002577659557416  |grad|_K:  1.229e-05  alpha:  2.994e-02  linmin: -1.133e-03  cgtest:  8.338e-01  t[s]:   4762.30
FluidMinimize: Iter:  28  F: -0.002581780573207  |grad|_K:  1.371e-05  alpha:  3.070e-02  linmin: -3.925e-02  cgtest:  2.034e-03  t[s]:   4762.61
FluidMinimize: Iter:  29  F: -0.002585119943686  |grad|_K:  6.068e-06  alpha:  1.748e-02  linmin: -4.669e-03  cgtest: -1.449e-01  t[s]:   4762.91
FluidMinimize: 	Predicted alpha/alphaT>3.000000, increasing alphaT to 5.245172e-02.
FluidMinimize: 	Predicted alpha/alphaT>3.000000, increasing alphaT to 1.573552e-01.
FluidMinimize: Iter:  30  F: -0.002592608913097  |grad|_K:  2.098e-05  alpha:  2.321e-01  linmin:  2.120e-02  cgtest:  1.997e-01  t[s]:   4763.49
FluidMinimize: Iter:  31  F: -0.002593071244303  |grad|_K:  2.016e-05  alpha:  6.891e-04  linmin: -1.491e-01  cgtest:  9.996e-01  t[s]:   4763.78
FluidMinimize: Encountered beta<0, resetting CG.
FluidMinimize: 	Predicted alpha/alphaT>3.000000, increasing alphaT to 2.067234e-03.
FluidMinimize: 	Predicted alpha/alphaT>3.000000, increasing alphaT to 6.201702e-03.
FluidMinimize: Iter:  32  F: -0.002596421411115  |grad|_K:  7.441e-06  alpha:  9.106e-03  linmin: -2.641e-02  cgtest:  1.606e-01  t[s]:   4764.38
FluidMinimize: 	Predicted alpha/alphaT>3.000000, increasing alphaT to 2.731669e-02.
FluidMinimize: Iter:  33  F: -0.002598211078689  |grad|_K:  6.727e-06  alpha:  3.632e-02  linmin:  1.931e-02  cgtest: -1.674e-01  t[s]:   4764.80
FluidMinimize: Iter:  34  F: -0.002599472470130  |grad|_K:  7.485e-06  alpha:  3.511e-02  linmin: -1.130e-02  cgtest:  2.290e-01  t[s]:   4765.11
FluidMinimize: Iter:  35  F: -0.002601298389594  |grad|_K:  8.475e-06  alpha:  3.588e-02  linmin:  7.859e-03  cgtest: -1.836e-01  t[s]:   4765.40
FluidMinimize: Iter:  36  F: -0.002605360341278  |grad|_K:  1.253e-05  alpha:  6.521e-02  linmin: -1.498e-02  cgtest:  3.119e-01  t[s]:   4765.71
FluidMinimize: Iter:  37  F: -0.002612478858629  |grad|_K:  1.120e-05  alpha:  4.653e-02  linmin:  3.129e-04  cgtest: -7.523e-02  t[s]:   4766.00
FluidMinimize: Iter:  38  F: -0.002616315048187  |grad|_K:  1.318e-05  alpha:  3.529e-02  linmin: -1.977e-03  cgtest:  5.612e-02  t[s]:   4766.31
FluidMinimize: Iter:  39  F: -0.002621256027169  |grad|_K:  1.165e-05  alpha:  3.111e-02  linmin:  6.863e-03  cgtest:  7.343e-02  t[s]:   4766.61
FluidMinimize: Iter:  40  F: -0.002625710668824  |grad|_K:  1.178e-05  alpha:  3.908e-02  linmin: -1.943e-03  cgtest:  2.116e-01  t[s]:   4766.92
FluidMinimize: Iter:  41  F: -0.002630751513097  |grad|_K:  1.460e-05  alpha:  4.057e-02  linmin:  7.638e-04  cgtest: -3.274e-02  t[s]:   4767.22
FluidMinimize: Iter:  42  F: -0.002635005784042  |grad|_K:  1.073e-05  alpha:  2.429e-02  linmin:  2.072e-03  cgtest: -1.992e-01  t[s]:   4767.54
FluidMinimize: Iter:  43  F: -0.002639276364600  |grad|_K:  1.236e-05  alpha:  4.670e-02  linmin:  1.869e-02  cgtest: -9.612e-02  t[s]:   4767.83
FluidMinimize: Iter:  44  F: -0.002641391592549  |grad|_K:  1.010e-05  alpha:  1.904e-02  linmin: -2.149e-03  cgtest:  5.725e-01  t[s]:   4768.14
FluidMinimize: 	Predicted alpha/alphaT>3.000000, increasing alphaT to 5.710665e-02.
FluidMinimize: Iter:  45  F: -0.002648361939091  |grad|_K:  1.015e-05  alpha:  7.596e-02  linmin: -9.560e-03  cgtest: -5.895e-02  t[s]:   4768.57
FluidMinimize: Iter:  46  F: -0.002655453759920  |grad|_K:  1.125e-05  alpha:  7.534e-02  linmin:  3.385e-03  cgtest: -1.216e-01  t[s]:   4768.89
FluidMinimize: Iter:  47  F: -0.002659330032794  |grad|_K:  1.324e-05  alpha:  3.175e-02  linmin: -9.541e-03  cgtest:  1.728e-01  t[s]:   4769.19
FluidMinimize: Iter:  48  F: -0.002663538620158  |grad|_K:  1.099e-05  alpha:  2.602e-02  linmin: -5.827e-03  cgtest: -1.393e-01  t[s]:   4769.51
FluidMinimize: Iter:  49  F: -0.002669549310829  |grad|_K:  1.394e-05  alpha:  5.967e-02  linmin:  2.905e-02  cgtest: -2.222e-01  t[s]:   4769.80
FluidMinimize: Iter:  50  F: -0.002672225258200  |grad|_K:  1.165e-05  alpha:  2.012e-02  linmin:  7.000e-04  cgtest:  4.571e-01  t[s]:   4770.11
FluidMinimize: Iter:  51  F: -0.002679526124889  |grad|_K:  8.541e-06  alpha:  5.807e-02  linmin: -2.240e-02  cgtest: -1.979e-02  t[s]:   4770.40
FluidMinimize: Iter:  52  F: -0.002681793375743  |grad|_K:  1.121e-05  alpha:  3.409e-02  linmin:  2.535e-03  cgtest: -1.302e-01  t[s]:   4770.72
FluidMinimize: Iter:  53  F: -0.002685577944477  |grad|_K:  1.278e-05  alpha:  3.461e-02  linmin:  6.214e-03  cgtest:  8.604e-02  t[s]:   4771.01
FluidMinimize: Iter:  54  F: -0.002691722381183  |grad|_K:  9.097e-06  alpha:  4.354e-02  linmin: -8.574e-03  cgtest:  2.562e-01  t[s]:   4771.32
FluidMinimize: Iter:  55  F: -0.002693589742747  |grad|_K:  1.152e-05  alpha:  2.605e-02  linmin:  2.702e-03  cgtest: -3.693e-02  t[s]:   4771.62
FluidMinimize: Iter:  56  F: -0.002697808317545  |grad|_K:  9.850e-06  alpha:  3.806e-02  linmin:  1.337e-02  cgtest: -6.036e-03  t[s]:   4771.93
FluidMinimize: Iter:  57  F: -0.002702358677360  |grad|_K:  1.070e-05  alpha:  6.101e-02  linmin:  3.654e-03  cgtest:  3.878e-01  t[s]:   4772.23
FluidMinimize: Iter:  58  F: -0.002703989900093  |grad|_K:  1.030e-05  alpha:  1.854e-02  linmin:  1.499e-02  cgtest: -1.325e-01  t[s]:   4772.54
FluidMinimize: 	Predicted alpha/alphaT>3.000000, increasing alphaT to 5.563497e-02.
FluidMinimize: Iter:  59  F: -0.002708727913257  |grad|_K:  6.874e-06  alpha:  5.615e-02  linmin:  3.264e-03  cgtest:  1.282e-01  t[s]:   4772.96
FluidMinimize: Iter:  60  F: -0.002711798162842  |grad|_K:  1.161e-05  alpha:  7.564e-02  linmin:  7.782e-03  cgtest: -3.759e-02  t[s]:   4773.28
FluidMinimize: Iter:  61  F: -0.002713395370076  |grad|_K:  8.169e-06  alpha:  1.680e-02  linmin:  1.830e-02  cgtest:  4.297e-02  t[s]:   4773.58
FluidMinimize: 	Predicted alpha/alphaT>3.000000, increasing alphaT to 5.041395e-02.
FluidMinimize: Iter:  62  F: -0.002716052367828  |grad|_K:  8.067e-06  alpha:  4.998e-02  linmin:  9.894e-03  cgtest:  4.824e-02  t[s]:   4774.04
FluidMinimize: Iter:  63  F: -0.002719951411893  |grad|_K:  9.513e-06  alpha:  6.922e-02  linmin: -1.038e-02  cgtest: -2.840e-02  t[s]:   4774.33
FluidMinimize: Iter:  64  F: -0.002721653521185  |grad|_K:  1.060e-05  alpha:  2.389e-02  linmin:  2.841e-02  cgtest: -1.997e-01  t[s]:   4774.64
FluidMinimize: Iter:  65  F: -0.002723909180050  |grad|_K:  7.785e-06  alpha:  2.615e-02  linmin:  6.197e-03  cgtest:  4.502e-01  t[s]:   4774.93
FluidMinimize: Iter:  66  F: -0.002725500244951  |grad|_K:  1.026e-05  alpha:  3.068e-02  linmin:  1.236e-02  cgtest: -3.328e-02  t[s]:   4775.25
FluidMinimize: Iter:  67  F: -0.002727246616228  |grad|_K:  5.646e-06  alpha:  2.069e-02  linmin: -6.532e-04  cgtest:  2.528e-01  t[s]:   4775.54
FluidMinimize: Iter:  68  F: -0.002728292392132  |grad|_K:  7.514e-06  alpha:  3.588e-02  linmin: -2.272e-02  cgtest:  4.532e-02  t[s]:   4775.85
FluidMinimize: Iter:  69  F: -0.002729352115864  |grad|_K:  4.923e-06  alpha:  1.921e-02  linmin: -2.006e-03  cgtest: -1.822e-01  t[s]:   4776.15
FluidMinimize: Converged (|Delta F|<1.348048e-06 for 2 iters).

Fluid minimization # 3 changed total free energy by -2.899696e-04 at t[s]:   4776.31

-------------------- Electronic Minimization # 3 ---------------------
	FillingsUpdate:  mu: -0.186264188  nElectrons: 331.000000
ElecMinimize: Iter:   0  F: -1802.712555606668957  |grad|_K:  4.568e-06  alpha:  1.000e+00
	FillingsUpdate:  mu: -0.187753214  nElectrons: 331.000000
	SubspaceRotationAdjust: set factor to 0.186
ElecMinimize: Iter:   1  F: -1802.712705962476548  |grad|_K:  6.313e-07  alpha:  1.678e-01  linmin: -1.193e-04  t[s]:   5283.66
	FillingsUpdate:  mu: -0.187547360  nElectrons: 331.000000
	SubspaceRotationAdjust: set factor to 0.227
ElecMinimize: Iter:   2  F: -1802.712713112907295  |grad|_K:  3.626e-07  alpha:  4.179e-01  linmin:  4.833e-06  t[s]:   5645.00
	FillingsUpdate:  mu: -0.187384106  nElectrons: 331.000000
	SubspaceRotationAdjust: set factor to 0.275
ElecMinimize: Iter:   3  F: -1802.712716294994379  |grad|_K:  3.123e-07  alpha:  5.640e-01  linmin: -9.303e-07  t[s]:   6000.94
	FillingsUpdate:  mu: -0.187244903  nElectrons: 331.000000
	SubspaceRotationAdjust: set factor to 0.179
ElecMinimize: Iter:   4  F: -1802.712717974646239  |grad|_K:  4.369e-07  alpha:  4.013e-01  linmin:  2.925e-08  t[s]:   6359.53
	FillingsUpdate:  mu: -0.187288289  nElectrons: 331.000000
	SubspaceRotationAdjust: set factor to 0.124
ElecMinimize: Iter:   5  F: -1802.712718952667501  |grad|_K:  2.343e-07  alpha:  1.194e-01  linmin:  9.871e-07  t[s]:   6714.13
ElecMinimize: 	Predicted alpha/alphaT>3.000000, increasing alphaT to 3.582346e-01.
	FillingsUpdate:  mu: -0.187151017  nElectrons: 331.000000
	SubspaceRotationAdjust: set factor to 0.171
ElecMinimize: Iter:   6  F: -1802.712720199469004  |grad|_K:  1.980e-07  alpha:  5.294e-01  linmin: -9.900e-07  t[s]:   7159.59
ElecMinimize: Converged (|Delta F|<1.348048e-06 for 2 iters).
Setting wave functions to eigenvectors of Hamiltonian

Electronic minimization # 3 changed total free energy by -3.490348e-05 at t[s]:   7175.72

---------------------- Fluid Minimization # 4 -----------------------
FluidMinimize: Iter:   0  F: -0.003067910286139  |grad|_K:  1.816e-05  alpha:  1.000e+00
FluidMinimize: Iter:   1  F: -0.003067910558172  |grad|_K:  1.816e-05  alpha:  4.660e-07  linmin: -1.857e-01  cgtest:  1.000e+00  t[s]:   7176.20
FluidMinimize: Encountered beta<0, resetting CG.
FluidMinimize: 	Predicted alpha/alphaT>3.000000, increasing alphaT to 1.398084e-06.
FluidMinimize: 	Predicted alpha/alphaT>3.000000, increasing alphaT to 4.194251e-06.
FluidMinimize: 	Predicted alpha/alphaT>3.000000, increasing alphaT to 1.258275e-05.
FluidMinimize: 	Predicted alpha/alphaT>3.000000, increasing alphaT to 3.774826e-05.
FluidMinimize: 	Predicted alpha/alphaT>3.000000, increasing alphaT to 1.132448e-04.
FluidMinimize: 	Predicted alpha/alphaT>3.000000, increasing alphaT to 3.397343e-04.
FluidMinimize: Iter:   2  F: -0.003070592931430  |grad|_K:  8.619e-06  alpha:  9.749e-03  linmin:  1.863e-02  cgtest: -1.837e-01  t[s]:   7177.14
FluidMinimize: Converged (|Delta F|<2.899696e-06 for 2 iters).

Fluid minimization # 4 changed total free energy by -2.682645e-06 at t[s]:   7177.30

-------------------- Electronic Minimization # 4 ---------------------
	FillingsUpdate:  mu: -0.187148770  nElectrons: 331.000000
ElecMinimize: Iter:   0  F: -1802.712549496155361  |grad|_K:  6.470e-06  alpha:  1.000e+00
	FillingsUpdate:  mu: -0.188513469  nElectrons: 331.000000
	SubspaceRotationAdjust: set factor to 0.126
ElecMinimize: Iter:   1  F: -1802.712718630518339  |grad|_K:  7.077e-07  alpha:  9.386e-02  linmin: -1.680e-03  t[s]:   7682.29
	FillingsUpdate:  mu: -0.187675145  nElectrons: 331.000000
	SubspaceRotationAdjust: set factor to 0.142
ElecMinimize: Iter:   2  F: -1802.712724234336747  |grad|_K:  2.362e-07  alpha:  2.600e-01  linmin:  5.268e-06  t[s]:   8040.67
	FillingsUpdate:  mu: -0.187639938  nElectrons: 331.000000
	SubspaceRotationAdjust: set factor to 0.142
ElecMinimize: Iter:   3  F: -1802.712725160824220  |grad|_K:  1.381e-07  alpha:  3.869e-01  linmin: -3.869e-07  t[s]:   8402.22
	FillingsUpdate:  mu: -0.187662244  nElectrons: 331.000000
	SubspaceRotationAdjust: set factor to 0.106
ElecMinimize: Iter:   4  F: -1802.712725367652183  |grad|_K:  1.179e-07  alpha:  2.525e-01  linmin:  4.152e-07  t[s]:   8763.91
ElecMinimize: Converged (|Delta F|<2.899696e-06 for 2 iters).
Setting wave functions to eigenvectors of Hamiltonian

Electronic minimization # 4 changed total free energy by -2.485539e-06 at t[s]:   8780.22

Fluid<-->Electron self-consistency loop converged to 1.000000e-05 hartrees after 4 minimization pairs at t[s]:   8780.22.

# Ionic positions in lattice coordinates:
ion O   0.500000000000000   0.304423550890550   0.339153217686786 1
ion C   0.500000000000000   0.488767071287260   0.299562831654448 1
ion H   0.500000000000000   0.678690294196894   0.325238513066737 1
ion Pt  -0.000000000000000   0.000000000000000  -0.166660000000000 0
ion Pt  -0.000000000000000   0.500000000000000  -0.166660000000000 0
ion Pt   0.500000000000000   0.000000000000000  -0.166660000000000 0
ion Pt   0.500000000000000   0.500000000000000  -0.166660000000000 0
ion Pt   0.250000000000000   0.250000000000000  -0.083330000000000 0
ion Pt   0.250000000000000   0.750000000000000  -0.083330000000000 0
ion Pt   0.750000000000000   0.250000000000000  -0.083330000000000 0
ion Pt   0.750000000000000   0.750000000000000  -0.083330000000000 0
ion Pt  -0.000000000000000   0.000536137744999   0.006476089368976 1
ion Pt  -0.000000000000000   0.500679479810856   0.007581745286657 1
ion Pt   0.500000000000000   0.000697155894750   0.008560999731273 1
ion Pt   0.500000000000000   0.500678450930038   0.009300988656817 1
ion Pt   0.246858551198002   0.250747864833470   0.100197588404874 1
ion Pt   0.247080518896339   0.752750981914416   0.100340078604641 1
ion Pt   0.753141448801997   0.250747864833470   0.100197588404874 1
ion Pt   0.752919481103661   0.752750981914416   0.100340078604641 1
ion Pt  -0.000000000000000   0.001225927790808   0.183632543113588 1
ion Pt  -0.000000000000000   0.501508249513453   0.183611157984700 1
ion Pt   0.500000000000000   0.004136562223003   0.181199880352149 1
ion Pt   0.500000000000000   0.503667324653520   0.182430396807134 1


# Forces in Lattice coordinates:
force O   0.000000000000000  -0.057802160165231   0.182749528562660 1
force C   0.000000000000000   0.071397920176363  -0.130731234403001 1
force H   0.000000000000000  -0.031671390682313   0.114878251968615 1
force Pt   0.000000000000000  -0.000534389709413  -0.091269828313986 0
force Pt   0.000000000000000   0.000021275261610  -0.065155856089751 0
force Pt   0.000000000000000  -0.000785932903399  -0.012866090946802 0
force Pt   0.000000000000000   0.000292515176825  -0.053199491265935 0
force Pt   0.030262735570224   0.013387448860116  -0.074729071692014 0
force Pt   0.030664794541794  -0.008002703124520  -0.071317293784251 0
force Pt  -0.030262735570224   0.013387448860116  -0.074729071692014 0
force Pt  -0.030664794541794  -0.008002703124520  -0.071317293784251 0
force Pt   0.000000000000000   0.001731659506435   0.078308261044104 1
force Pt   0.000000000000000   0.000643851802090   0.073738293771126 1
force Pt   0.000000000000000  -0.000254929975955   0.073878629797772 1
force Pt   0.000000000000000   0.003518242615318   0.059607085241815 1
force Pt   0.002263455976300   0.010044462759324  -0.056354707992429 1
force Pt   0.000486969549486  -0.004178348844477  -0.061053033655982 1
force Pt  -0.002263455976300   0.010044462759324  -0.056354707992429 1
force Pt  -0.000486969549486  -0.004178348844477  -0.061053033655982 1
force Pt   0.000000000000000   0.004540564405021   0.107649355408722 1
force Pt   0.000000000000000   0.001520196472611   0.079887972926759 1
force Pt   0.000000000000000   0.000767209699865   0.015422424290223 1
force Pt   0.000000000000000  -0.018774227357466   0.173403557782125 1

# Energy components:
   A_diel =       -0.0031322104269852
   Eewald =     2028.8023614339083451
       EH =     3708.2872066866043497
     Eloc =    -7855.8931926998902782
      Enl =      -17.7528003003386878
      Exc =     -571.9916202144885347
 Exc_core =      324.9288504935375386
       KE =      581.1408030677621355
  MuShift =       -0.0000000000054530
-------------------------------------
     Etot =    -1802.4815237433372204
       TS =        0.2312016243148932
-------------------------------------
        F =    -1802.7127253676521832

IonicMinimize: Iter:   0  F: -1802.712725367652183  |grad|_K:  2.332e-03  t[s]:   8822.88
IonicMinimize: None of the convergence criteria satisfied after 0 iterations.

#--- Lowdin population analysis ---
# oxidation-state O -0.209
# oxidation-state C +0.270
# oxidation-state H +0.260
# oxidation-state Pt +0.069 +0.069 +0.066 +0.064 -0.050 -0.051 -0.050 -0.051 +0.003 +0.001 +0.003 -0.019 -0.048 -0.051 -0.048 -0.051 +0.072 +0.078 +0.060 -0.024


Dumping '100_0-Solvated.ionpos' ... done
Dumping '100_0-Solvated.n' ... done
Dumping '100_0-Solvated.eigStats' ... 
	eMin: -2.142967 at state 0 ( [ +0.000000 +0.000000 +0.000000 ] spin 0 )
	HOMO: -0.187929 at state 0 ( [ +0.000000 +0.000000 +0.000000 ] spin 0 )
	mu  : -0.187662
	LUMO: -0.186812 at state 8 ( [ +0.500000 +0.500000 +0.000000 ] spin 0 )
	eMax: +0.355959 at state 5 ( [ +0.250000 +0.500000 +0.000000 ] spin 0 )
	HOMO-LUMO gap: +0.001118
	Optical gap  : +0.002493 at state 0 ( [ +0.000000 +0.000000 +0.000000 ] spin 0 )
Dumping '100_0-Solvated.Ecomponents' ... done
End date and time: Sat Jun  1 05:41:07 2019  (Duration: 0-2:27:54.08)
Done!
