--------------------------------------------------------------------------
Initialization of PSM library failed.

  Error: PSM is in the finalized state
--------------------------------------------------------------------------
--------------------------------------------------------------------------
The OpenFabrics (openib) BTL failed to initialize while trying to
allocate some locked memory.  This typically can indicate that the
memlock limits are set too low.  For most HPC installations, the
memlock limits should be set to "unlimited".  The failure occured
here:

  Local host:    node2013
  OMPI source:   btl_openib.c:753
  Function:      ompi_free_list_init_ex_new()
  Device:        qib0
  Memlock limit: 65536

You may need to consult with your system administrator to get this
problem fixed.  This FAQ entry on the Open MPI web site may also be
helpful:

    http://www.open-mpi.org/faq/?category=openfabrics#ib-locked-pages
--------------------------------------------------------------------------

*************** JDFTx 1.4.2 (git hash 74b6e54) ***************

Start date and time: Fri Apr 26 01:11:16 2019
Executable /home/jfm343/JDFTXDIR/build/jdftx with command-line: -i Solvated.in
Running on hosts (process indices):  node2013.physics.cornell.edu (0)
Divided in process groups (process indices):  0 (0)
Resource initialization completed at t[s]:      0.00
Run totals: 1 processes, 12 threads, 0 GPUs


Input parsed successfully to the following command list (including defaults):

basis kpoint-dependent
coords-type Lattice
core-overlap-check vector
coulomb-interaction Slab 001
coulomb-truncation-embed 0 0 0
davidson-band-ratio 1.1
dump End IonicPositions ElecDensity EigStats Ecomponents
dump-name 110_2-Solvated.$VAR
elec-cutoff 20 100
elec-eigen-algo Davidson
elec-ex-corr gga-PBEsol
elec-smearing Fermi 0.01
electronic-minimize  \
	dirUpdateScheme      FletcherReeves \
	linminMethod         DirUpdateRecommended \
	nIterations          200 \
	history              15 \
	knormThreshold       0 \
	energyDiffThreshold  1e-08 \
	nEnergyDiff          2 \
	alphaTstart          1 \
	alphaTmin            1e-10 \
	updateTestStepSize   yes \
	alphaTreduceFactor   0.1 \
	alphaTincreaseFactor 3 \
	nAlphaAdjustMax      3 \
	wolfeEnergy          0.0001 \
	wolfeGradient        0.9 \
	fdTest               no
exchange-regularization WignerSeitzTruncated
fluid NonlinearPCM 298.000000 1.013250
fluid-anion ClO4- 0.2 MeanFieldLJ \
	epsBulk 1 \
	pMol 0 \
	epsInf 1 \
	Pvap 0 \
	sigmaBulk 0 \
	Rvdw 4.55424 \
	Res 0 \
	tauNuc 343133 \
	omegaEl 0.55124 \
	gammaEl 0.257245
fluid-cation Na+ 0.2 MeanFieldLJ \
	epsBulk 1 \
	pMol 0 \
	epsInf 1 \
	Pvap 0 \
	sigmaBulk 0 \
	Rvdw 2.19208 \
	Res 0 \
	tauNuc 343133 \
	omegaEl 0.55124 \
	gammaEl 0.257245
fluid-ex-corr lda-TF lda-PZ
fluid-gummel-loop 10 1.000000e-05
fluid-minimize  \
	dirUpdateScheme      PolakRibiere \
	linminMethod         DirUpdateRecommended \
	nIterations          100 \
	history              15 \
	knormThreshold       1e-11 \
	energyDiffThreshold  0 \
	nEnergyDiff          2 \
	alphaTstart          1 \
	alphaTmin            1e-10 \
	updateTestStepSize   yes \
	alphaTreduceFactor   0.1 \
	alphaTincreaseFactor 3 \
	nAlphaAdjustMax      6 \
	wolfeEnergy          0.0001 \
	wolfeGradient        0.9 \
	fdTest               no
fluid-solvent H2O 55.338 ScalarEOS \
	epsBulk 78.4 \
	pMol 0.92466 \
	epsInf 1.77 \
	Pvap 1.06736e-10 \
	sigmaBulk 4.62e-05 \
	Rvdw 2.61727 \
	Res 1.42 \
	tauNuc 343133 \
	omegaEl 0.55124 \
	gammaEl 0.257245
forces-output-coords Positions
initial-state 110_2-Vacuum.$VAR
ion O   0.500000000000000   0.365407440914348   0.314208152359549 1
ion C   0.500000000000000   0.496311658302855   0.276495979261035 1
ion H   0.500000000000000   0.628786403510133   0.300017503452082 1
ion Pt   0.000000000000000   0.000000000000000  -0.155941670000000 0
ion Pt   0.500000000000000   0.500000000000000  -0.155941670000000 0
ion Pt   0.000000000000000   0.500000000000000  -0.155941670000000 0
ion Pt   0.500000000000000   0.000000000000000  -0.155941670000000 0
ion Pt   0.750000000000000   0.250000000000000  -0.077970830000000 0
ion Pt   0.250000000000000   0.750000000000000  -0.077970830000000 0
ion Pt   0.250000000000000   0.250000000000000  -0.077970830000000 0
ion Pt   0.750000000000000   0.750000000000000  -0.077970830000000 0
ion Pt   0.500000000000000   0.000026657420041   0.002438032435347 1
ion Pt   0.000000000000000  -0.000025471113995   0.002371256957378 1
ion Pt   0.000000000000000   0.500156267198410   0.002346112359747 1
ion Pt   0.500000000000000   0.499966214659309   0.002210475273398 1
ion Pt   0.749898608102046   0.250063374217095   0.091085846483234 1
ion Pt   0.249766155068349   0.750758432749139   0.091129491073497 1
ion Pt   0.250101391897954   0.250063374217095   0.091085846483234 1
ion Pt   0.750233844931651   0.750758432749139   0.091129491073497 1
ion Pt   0.000000000000000   0.000424748740733   0.161237922032894 1
ion Pt   0.000000000000000   0.500013722010868   0.160301470715767 1
ion Pt   0.500000000000000   0.000664736919516   0.160820186160090 1
ion Pt   0.500000000000000   0.501692294765136   0.159537306454033 1
ion-species GBRV/$ID_pbesol.uspp
ion-width Ecut
ionic-minimize  \
	dirUpdateScheme      L-BFGS \
	linminMethod         DirUpdateRecommended \
	nIterations          0 \
	history              15 \
	knormThreshold       0.0001 \
	energyDiffThreshold  1e-06 \
	nEnergyDiff          2 \
	alphaTstart          1 \
	alphaTmin            1e-10 \
	updateTestStepSize   yes \
	alphaTreduceFactor   0.1 \
	alphaTincreaseFactor 3 \
	nAlphaAdjustMax      3 \
	wolfeEnergy          0.0001 \
	wolfeGradient        0.9 \
	fdTest               no
kpoint   0.000000000000   0.000000000000   0.000000000000  1.00000000000000
kpoint-folding 4 4 1 
latt-move-scale 1 1 1
latt-scale 1 1 1 
lattice Orthorhombic 10.4761 14.8155 31.4284
lattice-minimize  \
	dirUpdateScheme      L-BFGS \
	linminMethod         DirUpdateRecommended \
	nIterations          0 \
	history              15 \
	knormThreshold       0 \
	energyDiffThreshold  1e-06 \
	nEnergyDiff          2 \
	alphaTstart          1 \
	alphaTmin            1e-10 \
	updateTestStepSize   yes \
	alphaTreduceFactor   0.1 \
	alphaTincreaseFactor 3 \
	nAlphaAdjustMax      3 \
	wolfeEnergy          0.0001 \
	wolfeGradient        0.9 \
	fdTest               no
lcao-params -1 1e-06 0.01
pcm-variant GLSSA13
spintype no-spin
subspace-rotation-factor 1 yes
symmetries automatic
symmetry-threshold 0.0001
target-mu -0.1736 no




---------- Setting up symmetries ----------

Found 8 point-group symmetries of the bravais lattice
Found 2 space-group symmetries with basis
Applied RMS atom displacement 0 bohrs to make symmetries exact.

---------- Initializing the Grid ----------
R = 
[    10.4761          0          0  ]
[          0    14.8155          0  ]
[          0          0    31.4284  ]
unit cell volume = 4877.97
G =
[   0.599762          0          0  ]
[          0   0.424096          0  ]
[          0          0   0.199921  ]
Minimum fftbox size, Smin = [  48  68  144  ]
Chosen fftbox size, S = [  48  70  144  ]

---------- Initializing tighter grid for wavefunction operations ----------
R = 
[    10.4761          0          0  ]
[          0    14.8155          0  ]
[          0          0    31.4284  ]
unit cell volume = 4877.97
G =
[   0.599762          0          0  ]
[          0   0.424096          0  ]
[          0          0   0.199921  ]
Minimum fftbox size, Smin = [  44  60  128  ]
Chosen fftbox size, S = [  48  60  128  ]

---------- Exchange Correlation functional ----------
Initalized PBEsol GGA exchange.
Initalized PBEsol GGA correlation.

---------- Setting up pseudopotentials ----------
Width of ionic core gaussian charges (only for fluid interactions / plotting) set to 0.397384

Reading pseudopotential file '/home/jfm343/JDFTXDIR/build/pseudopotentials/GBRV/o_pbesol.uspp':
  Title: O.  Created by USPP 7.3.6 on 3-2-2014
  Reference state energy: -15.849885.  6 valence electrons in orbitals:
    |200>  occupation: 2  eigenvalue: -0.873214
    |210>  occupation: 4  eigenvalue: -0.330058
  lMax: 2  lLocal: 2  QijEcut: 6
  5 projectors sampled on a log grid with 511 points:
    l: 0  eig: -0.873214  rCut: 1.25
    l: 0  eig: 0.000000  rCut: 1.25
    l: 1  eig: -0.330058  rCut: 1.25
    l: 1  eig: 0.000000  rCut: 1.25
    l: 2  eig: 1.000000  rCut: 1.25
  Partial core density with radius 0.7
  Transforming core density to a uniform radial grid of dG=0.02 with 1265 points.
  Transforming local potential to a uniform radial grid of dG=0.02 with 1265 points.
  Transforming nonlocal projectors to a uniform radial grid of dG=0.02 with 432 points.
  Transforming density augmentations to a uniform radial grid of dG=0.02 with 1265 points.
  Transforming atomic orbitals to a uniform radial grid of dG=0.02 with 432 points.
  Core radius for overlap checks: 1.25 bohrs.

Reading pseudopotential file '/home/jfm343/JDFTXDIR/build/pseudopotentials/GBRV/c_pbesol.uspp':
  Title: C.  Created by USPP 7.3.6 on 3-2-2014
  Reference state energy: -5.383511.  4 valence electrons in orbitals:
    |200>  occupation: 2  eigenvalue: -0.501126
    |210>  occupation: 2  eigenvalue: -0.192448
  lMax: 1  lLocal: 2  QijEcut: 5
  4 projectors sampled on a log grid with 503 points:
    l: 0  eig: -0.501126  rCut: 1.3
    l: 0  eig: 0.000000  rCut: 1.3
    l: 1  eig: -0.192448  rCut: 1.3
    l: 1  eig: 0.000000  rCut: 1.3
  Partial core density with radius 1.1
  Transforming core density to a uniform radial grid of dG=0.02 with 1265 points.
  Transforming local potential to a uniform radial grid of dG=0.02 with 1265 points.
  Transforming nonlocal projectors to a uniform radial grid of dG=0.02 with 432 points.
  Transforming density augmentations to a uniform radial grid of dG=0.02 with 1265 points.
  Transforming atomic orbitals to a uniform radial grid of dG=0.02 with 432 points.
  Core radius for overlap checks: 1.30 bohrs.

Reading pseudopotential file '/home/jfm343/JDFTXDIR/build/pseudopotentials/GBRV/h_pbesol.uspp':
  Title: H.  Created by USPP 7.3.6 on 22-9-15
  Reference state energy: -0.449841.  1 valence electrons in orbitals:
    |100>  occupation: 1  eigenvalue: -0.232690
  lMax: 0  lLocal: 1  QijEcut: 6
  2 projectors sampled on a log grid with 395 points:
    l: 0  eig: -0.232690  rCut: 1.2
    l: 0  eig: 1.000000  rCut: 1.2
  Transforming local potential to a uniform radial grid of dG=0.02 with 1265 points.
  Transforming nonlocal projectors to a uniform radial grid of dG=0.02 with 432 points.
  Transforming density augmentations to a uniform radial grid of dG=0.02 with 1265 points.
  Transforming atomic orbitals to a uniform radial grid of dG=0.02 with 432 points.
  Core radius for overlap checks: 1.20 bohrs.

Reading pseudopotential file '/home/jfm343/JDFTXDIR/build/pseudopotentials/GBRV/pt_pbesol.uspp':
  Title: Pt.  Created by USPP 7.3.6 on 22-9-15
  Reference state energy: -104.899005.  16 valence electrons in orbitals:
    |510>  occupation: 6  eigenvalue: -2.158847
    |520>  occupation: 9.5  eigenvalue: -0.336311
    |600>  occupation: 0  eigenvalue: -0.320324
    |610>  occupation: 0  eigenvalue: -0.119800
  lMax: 2  lLocal: 3  QijEcut: 5.5
  6 projectors sampled on a log grid with 745 points:
    l: 0  eig: -0.320324  rCut: 2.45
    l: 0  eig: 1.500000  rCut: 2.45
    l: 1  eig: -2.158847  rCut: 1.6
    l: 1  eig: -0.119800  rCut: 1.6
    l: 2  eig: -0.500000  rCut: 1.6
    l: 2  eig: -0.336311  rCut: 1.6
  Partial core density with radius 1.1
  Transforming core density to a uniform radial grid of dG=0.02 with 1265 points.
  Transforming local potential to a uniform radial grid of dG=0.02 with 1265 points.
  Transforming nonlocal projectors to a uniform radial grid of dG=0.02 with 432 points.
  Transforming density augmentations to a uniform radial grid of dG=0.02 with 1265 points.
  Transforming atomic orbitals to a uniform radial grid of dG=0.02 with 432 points.
  Core radius for overlap checks: 2.45 bohrs.

Initialized 4 species with 23 total atoms.

Folded 1 k-points by 4x4x1 to 16 k-points.

---------- Setting up k-points, bands, fillings ----------
Adding inversion symmetry to k-mesh for non-inversion-symmetric unit cell.
Reduced to 9 k-points under symmetry. 
Computing the number of bands and number of electrons
Reading initial fillings from file 110_2-Vacuum.fillings.
nElectrons: 331.000000   nBands: 249   nStates: 9

----- Setting up reduced wavefunction bases (one per k-point) -----
average nbasis = 20843.562 , ideal nbasis = 20839.040

---------- Setting up coulomb interaction ----------
Fluid mode embedding: using embedded box, but periodic Coulomb kernel.
(Fluid response is responsible for (approximate) separation between periodic images.)
Setting up double-sized grid for truncated Coulomb potentials:
R = 
[    10.4761          0          0  ]
[          0    14.8155          0  ]
[          0          0    62.8568  ]
unit cell volume = 9755.93
G =
[   0.599762          0          0  ]
[          0   0.424096          0  ]
[          0          0  0.0999604  ]
Chosen fftbox size, S = [  48  70  288  ]
Integer grid location selected as the embedding center:
   Grid: [  0  0  0  ]
   Lattice: [  0  0  0  ]
   Cartesian: [  0  0  0  ]
Constructing Wigner-Seitz cell: 6 faces (6 quadrilaterals, 0 hexagons)
Range-separation parameter for embedded mesh potentials due to point charges: 0.589372 bohrs.

---------- Setting up ewald sum ----------
Optimum gaussian width for ewald sums = 5.054889 bohr.
Real space sum over 715 unit cells with max indices [  6  5  2  ]
Reciprocal space sum over 5863 terms with max indices [  5  6  20  ]

---------- Allocating electronic variables ----------
Initializing wave functions:  reading from '110_2-Vacuum.wfns'
----- createFluidSolver() ----- (Fluid-side solver setup)
   Initializing fluid molecule 'H2O'
     Initializing site 'O'
       Electron density: proportional to exp(-r/0.36935)*erfc((r-0.51523)/0.36823) with norm 6.826
       Charge density: gaussian nuclear width 0.478731 with net site charge 0.826
       Polarizability: cuspless exponential with width 0.32 and norm 3.73
       Hard sphere radius: 2.57003 bohrs
       Positions in reference frame:
         [ +0.000000 +0.000000 +0.000000 ]
     Initializing site 'H'
       Electron density: proportional to exp(-r/0.34641)*erfc((r-0)/0.390882) with norm 0.587
       Charge density: gaussian nuclear width 0.377945 with net site charge -0.413
       Polarizability: cuspless exponential with width 0.39 and norm 3.3
       Positions in reference frame:
         [ +0.000000 -1.441945 +1.122523 ]
         [ +0.000000 +1.441945 +1.122523 ]
     Net charge: 0   dipole magnitude: 0.927204
     Initializing spherical shell mfKernel with radius 2.61727 Bohr
     deltaS corrections:
       site 'O': -7.54299
       site 'H': -6.83917
   Initializing fluid molecule 'Na+'
     Initializing site 'Na'
       Electron density: proportional to exp(-r/0.19682)*erfc((r-0.71491)/0.41314) with norm 8.1383
       Charge density: gaussian nuclear width 0.365347 with net site charge -1
       Hard sphere radius: 1.86327 bohrs
       Positions in reference frame:
         [ +0.000000 +0.000000 +0.000000 ]
     Net charge: -1   dipole magnitude: 0
     Initializing gaussian mfKernel with width: 1.55004 Bohr
     deltaS corrections:
       site 'Na': -22.3555
   Initializing fluid molecule 'ClO4-'
     Initializing site 'Cl'
       Electron density: proportional to exp(-r/0.48793)*erfc((r-0.93371)/0.45657) with norm 6.2308
       Charge density: gaussian nuclear width 0.55117 with net site charge -0.7692
       Hard sphere radius: 4.42196 bohrs
       Positions in reference frame:
         [ +0.000000 +0.000000 +0.000000 ]
     Initializing site 'O'
       Electron density: proportional to exp(-r/0.36013)*erfc((r-0.51636)/0.37371) with norm 6.4423
       Charge density: gaussian nuclear width 0.478731 with net site charge 0.4423
       Positions in reference frame:
         [ +1.705286 +1.705286 +1.705286 ]
         [ +1.705286 -1.705286 -1.705286 ]
         [ -1.705286 +1.705286 -1.705286 ]
         [ -1.705286 -1.705286 +1.705286 ]
     Net charge: 1   dipole magnitude: 0
     Initializing gaussian mfKernel with width: 3.22033 Bohr
     deltaS corrections:
       site 'Cl': -87.0374
       site 'O': 12.0842

Correction to mu due to finite nuclear width = -0.0336635
   Cavity determined by nc: 0.001 and sigma: 0.6
   Effective cavity tension: 9.5e-06 Eh/bohr^2 to account for cavitation and dispersion.
   Nonlinear dielectric with epsBulk = 78.4 and epsInf = 1.77 with density Nmol = 0.0049383 of dipoles pMol = 0.92466 at T = 298 K.
   Nonlinear ions with screening length = 12.843 bohrs and Z = 1 at T = 298 K.


---- Citations for features of the code used in this run ----

   Software package:
      R. Sundararaman, K. Letchworth-Weaver, K.A. Schwarz, D. Gunceler, Y. Ozhabes and T.A. Arias, 'JDFTx: software for joint density-functional theory', SoftwareX 6, 278 (2017)

   gga-PBEsol exchange-correlation functional:
      J.P. Perdew et al., Phys. Rev. Lett. 100, 136406 (2008)

   Pseudopotentials:
      KF Garrity, JW Bennett, KM Rabe and D Vanderbilt, Comput. Mater. Sci. 81, 446 (2014)

   Truncated Coulomb potentials:
      R. Sundararaman and T.A. Arias, Phys. Rev. B 87, 165122 (2013)

   Linear/nonlinear dielectric/ionic fluid model with effective cavity tension:
      D. Gunceler, K. Letchworth-Weaver, R. Sundararaman, K.A. Schwarz and T.A. Arias, Modelling Simul. Mater. Sci. Eng. 21, 074005 (2013)

   Total energy minimization with Auxiliary Hamiltonian:
      C. Freysoldt, S. Boeck, and J. Neugebauer, Phys. Rev. B 79, 241103(R) (2009)

   Grand-canonical (fixed-potential) DFT:
      R. Sundararaman, W. A. Goddard III and T. A. Arias, J. Chem. Phys. 146, 114104 (2017)

This list may not be complete. Please suggest additional citations or
report any other bugs at https://github.com/shankar1729/jdftx/issues

Initialization completed successfully at t[s]:     91.86

Shifting auxilliary hamiltonian by 0.021552 to set nElectrons=331.000000
Initializing state of NonlinearPCM using a similar LinearPCM: 	Linear fluid (dielectric constant: 78.4, screening length: 12.843 Bohr) occupying 0.706054 of unit cell:	Completed after 45 iterations at t[s]:    105.71

-------- Electron <-> Fluid self-consistency loop -----------

---------------------- Fluid Minimization # 1 -----------------------
FluidMinimize: Iter:   0  G: -0.001387381831822  |grad|_K:  3.403e-05  alpha:  1.000e+00
FluidMinimize: Iter:   1  G: -0.001625865482560  |grad|_K:  7.316e-05  alpha:  2.155e-01  linmin: -9.875e-05  cgtest:  1.710e-04  t[s]:    108.25
FluidMinimize: Iter:   2  G: -0.001714459567267  |grad|_K:  3.792e-05  alpha:  1.343e-02  linmin: -6.342e-02  cgtest:  5.082e-01  t[s]:    108.79
FluidMinimize: Iter:   3  G: -0.001744540106671  |grad|_K:  1.997e-05  alpha:  2.137e-02  linmin: -1.788e-03  cgtest:  1.653e-02  t[s]:    109.33
FluidMinimize: Iter:   4  G: -0.001753997241337  |grad|_K:  2.256e-05  alpha:  2.416e-02  linmin: -3.709e-05  cgtest: -1.367e-02  t[s]:    109.86
FluidMinimize: 	Predicted alpha/alphaT>3.000000, increasing alphaT to 7.249309e-02.
FluidMinimize: Iter:   5  G: -0.001836772888329  |grad|_K:  1.880e-05  alpha:  1.650e-01  linmin: -9.329e-03  cgtest:  1.402e-01  t[s]:    110.63
FluidMinimize: Iter:   6  G: -0.001895233079494  |grad|_K:  3.062e-05  alpha:  1.662e-01  linmin: -3.518e-04  cgtest: -5.606e-02  t[s]:    111.16
FluidMinimize: Iter:   7  G: -0.001926529033161  |grad|_K:  2.211e-05  alpha:  3.499e-02  linmin:  1.312e-03  cgtest: -1.232e-02  t[s]:    111.69
FluidMinimize: Iter:   8  G: -0.001935930035620  |grad|_K:  1.965e-05  alpha:  2.013e-02  linmin:  9.617e-05  cgtest:  5.664e-03  t[s]:    112.24
FluidMinimize: 	Predicted alpha/alphaT>3.000000, increasing alphaT to 6.038070e-02.
FluidMinimize: Iter:   9  G: -0.001983452247080  |grad|_K:  1.123e-05  alpha:  1.254e-01  linmin: -9.108e-03  cgtest: -4.580e-02  t[s]:    113.00
FluidMinimize: Iter:  10  G: -0.001998218557346  |grad|_K:  2.298e-05  alpha:  1.172e-01  linmin: -4.422e-04  cgtest: -2.766e-02  t[s]:    113.56
FluidMinimize: Iter:  11  G: -0.002008339396373  |grad|_K:  1.288e-05  alpha:  1.913e-02  linmin: -4.126e-03  cgtest:  8.169e-02  t[s]:    114.10
FluidMinimize: 	Predicted alpha/alphaT>3.000000, increasing alphaT to 5.740130e-02.
FluidMinimize: Iter:  12  G: -0.002021437171001  |grad|_K:  1.802e-05  alpha:  7.943e-02  linmin: -3.344e-04  cgtest: -4.028e-02  t[s]:    114.88
FluidMinimize: Iter:  13  G: -0.002044668521709  |grad|_K:  1.575e-05  alpha:  7.377e-02  linmin: -8.556e-04  cgtest:  5.692e-02  t[s]:    115.41
FluidMinimize: Iter:  14  G: -0.002048778373684  |grad|_K:  1.145e-05  alpha:  1.702e-02  linmin: -2.098e-04  cgtest: -1.076e-02  t[s]:    115.97
FluidMinimize: 	Predicted alpha/alphaT>3.000000, increasing alphaT to 5.105319e-02.
FluidMinimize: 	Predicted alpha/alphaT>3.000000, increasing alphaT to 1.531596e-01.
FluidMinimize: Iter:  15  G: -0.002070011107172  |grad|_K:  1.526e-05  alpha:  1.670e-01  linmin:  5.886e-04  cgtest: -8.475e-03  t[s]:    116.97
FluidMinimize: Iter:  16  G: -0.002078066858294  |grad|_K:  9.476e-06  alpha:  3.614e-02  linmin:  6.421e-04  cgtest: -2.756e-02  t[s]:    117.52
FluidMinimize: 	Predicted alpha/alphaT>3.000000, increasing alphaT to 1.084097e-01.
FluidMinimize: Iter:  17  G: -0.002088127635450  |grad|_K:  2.135e-05  alpha:  1.164e-01  linmin:  3.895e-04  cgtest:  8.931e-03  t[s]:    118.28
FluidMinimize: Iter:  18  G: -0.002097659061430  |grad|_K:  9.146e-06  alpha:  2.133e-02  linmin: -2.594e-03  cgtest:  3.751e-03  t[s]:    118.83
FluidMinimize: 	Predicted alpha/alphaT>3.000000, increasing alphaT to 6.399010e-02.
FluidMinimize: Iter:  19  G: -0.002105862289354  |grad|_K:  1.421e-05  alpha:  9.995e-02  linmin:  6.704e-04  cgtest: -1.641e-02  t[s]:    119.61
FluidMinimize: Converged (|Delta G|<1.000000e-05 for 2 iters).

Fluid minimization # 1 changed total free energy by -7.184805e-04 at t[s]:    119.92

-------------------- Electronic Minimization # 1 ---------------------
	FillingsUpdate:  mu: -0.173600000  nElectrons: 331.000000
ElecMinimize: Iter:   0  G: -1745.234230618915717  |grad|_K:  3.262e-05  alpha:  1.000e+00
	FillingsUpdate:  mu: -0.173600000  nElectrons: 331.030676
	SubspaceRotationAdjust: set factor to 0.413
ElecMinimize: Iter:   1  G: -1745.234361922700600  |grad|_K:  1.260e-05  alpha:  3.615e-03  linmin:  4.410e-02  t[s]:    667.94
	FillingsUpdate:  mu: -0.173600000  nElectrons: 331.017745
	SubspaceRotationAdjust: set factor to 0.198
ElecMinimize: Iter:   2  G: -1745.234408750967987  |grad|_K:  6.936e-06  alpha:  8.658e-03  linmin: -1.636e-05  t[s]:   1054.24
ElecMinimize: 	Predicted alpha/alphaT>3.000000, increasing alphaT to 2.597322e-02.
	FillingsUpdate:  mu: -0.173600000  nElectrons: 331.037763
	SubspaceRotationAdjust: set factor to 0.107
	SubspaceRotationAdjust: resetting CG because factor has changed by 0.107483
ElecMinimize: 	State modified externally: resetting search direction.
ElecMinimize: Iter:   3  G: -1745.234506024575694  |grad|_K:  6.348e-06  alpha:  4.301e-02
	FillingsUpdate:  mu: -0.173600000  nElectrons: 331.022754
	SubspaceRotationAdjust: set factor to 0.112
ElecMinimize: Iter:   4  G: -1745.234564230365777  |grad|_K:  2.972e-06  alpha:  3.075e-02  linmin: -8.630e-06  t[s]:   2068.78
ElecMinimize: 	Predicted alpha/alphaT>3.000000, increasing alphaT to 9.225559e-02.
ElecMinimize: 	Predicted alpha/alphaT>3.000000, increasing alphaT to 2.767668e-01.
	FillingsUpdate:  mu: -0.173600000  nElectrons: 331.028806
	SubspaceRotationAdjust: set factor to 0.0929
ElecMinimize: Iter:   5  G: -1745.234809460373754  |grad|_K:  2.711e-06  alpha:  5.905e-01  linmin: -4.764e-05  t[s]:   2632.01
	FillingsUpdate:  mu: -0.173600000  nElectrons: 331.029751
	SubspaceRotationAdjust: set factor to 0.0707
ElecMinimize: Iter:   6  G: -1745.234897930715761  |grad|_K:  2.041e-06  alpha:  2.558e-01  linmin: -2.176e-06  t[s]:   3020.82
	FillingsUpdate:  mu: -0.173600000  nElectrons: 331.022180
	SubspaceRotationAdjust: set factor to 0.0414
ElecMinimize: Iter:   7  G: -1745.234976982774015  |grad|_K:  2.964e-06  alpha:  4.036e-01  linmin: -1.294e-05  t[s]:   3408.57
	FillingsUpdate:  mu: -0.173600000  nElectrons: 331.031020
	SubspaceRotationAdjust: set factor to 0.0249
ElecMinimize: Iter:   8  G: -1745.235001709594371  |grad|_K:  1.490e-06  alpha:  5.985e-02  linmin: -6.364e-07  t[s]:   3792.85
ElecMinimize: 	Predicted alpha/alphaT>3.000000, increasing alphaT to 1.795503e-01.
	FillingsUpdate:  mu: -0.173600000  nElectrons: 331.036674
	SubspaceRotationAdjust: set factor to 0.0172
ElecMinimize: Iter:   9  G: -1745.235051792231843  |grad|_K:  1.815e-06  alpha:  4.798e-01  linmin: -1.054e-05  t[s]:   4272.99
	FillingsUpdate:  mu: -0.173600000  nElectrons: 331.028684
	SubspaceRotationAdjust: set factor to 0.0133
	SubspaceRotationAdjust: resetting CG because factor has changed by 0.123328
ElecMinimize: 	State modified externally: resetting search direction.
ElecMinimize: Iter:  10  G: -1745.235079524285084  |grad|_K:  1.236e-06  alpha:  1.791e-01
	FillingsUpdate:  mu: -0.173600000  nElectrons: 331.031374
	SubspaceRotationAdjust: set factor to 0.023
ElecMinimize: Iter:  11  G: -1745.235101455459244  |grad|_K:  5.720e-07  alpha:  3.053e-01  linmin: -2.891e-07  t[s]:   5198.56
	FillingsUpdate:  mu: -0.173600000  nElectrons: 331.028899
	SubspaceRotationAdjust: set factor to 0.0185
ElecMinimize: Iter:  12  G: -1745.235110110008691  |grad|_K:  5.125e-07  alpha:  5.630e-01  linmin:  1.129e-05  t[s]:   5586.66
	FillingsUpdate:  mu: -0.173600000  nElectrons: 331.031976
	SubspaceRotationAdjust: set factor to 0.0136
ElecMinimize: Iter:  13  G: -1745.235114506229138  |grad|_K:  4.916e-07  alpha:  3.563e-01  linmin: -1.430e-07  t[s]:   5973.76
ElecMinimize: Converged (|Delta G|<1.000000e-05 for 2 iters).
Setting wave functions to eigenvectors of Hamiltonian

Electronic minimization # 1 changed total free energy by -8.838873e-04 at t[s]:   5990.83

---------------------- Fluid Minimization # 2 -----------------------
FluidMinimize: Iter:   0  G: -0.008830107417793  |grad|_K:  8.155e-05  alpha:  1.000e+00
FluidMinimize: Iter:   1  G: -0.008830107474595  |grad|_K:  8.155e-05  alpha:  4.413e-09  linmin: -9.876e-02  cgtest:  1.000e+00  t[s]:   5991.69
FluidMinimize: Encountered beta<0, resetting CG.
FluidMinimize: 	Predicted alpha/alphaT>3.000000, increasing alphaT to 1.323955e-08.
FluidMinimize: 	Predicted alpha/alphaT>3.000000, increasing alphaT to 3.971864e-08.
FluidMinimize: 	Predicted alpha/alphaT>3.000000, increasing alphaT to 1.191559e-07.
FluidMinimize: 	Predicted alpha/alphaT>3.000000, increasing alphaT to 3.574678e-07.
FluidMinimize: 	Predicted alpha/alphaT>3.000000, increasing alphaT to 1.072403e-06.
FluidMinimize: 	Predicted alpha/alphaT>3.000000, increasing alphaT to 3.217210e-06.
FluidMinimize: Iter:   2  G: -0.008982355585481  |grad|_K:  2.723e-05  alpha:  2.318e-02  linmin: -4.279e-03  cgtest:  7.243e-02  t[s]:   5993.48
FluidMinimize: Iter:   3  G: -0.009009812526019  |grad|_K:  4.151e-05  alpha:  3.744e-02  linmin: -6.745e-04  cgtest: -4.260e-03  t[s]:   5994.04
FluidMinimize: Iter:   4  G: -0.009068351761497  |grad|_K:  1.284e-05  alpha:  3.491e-02  linmin: -5.397e-04  cgtest:  7.667e-02  t[s]:   5994.59
FluidMinimize: 	Predicted alpha/alphaT>3.000000, increasing alphaT to 1.047180e-01.
FluidMinimize: Iter:   5  G: -0.009087583133118  |grad|_K:  1.881e-05  alpha:  1.204e-01  linmin: -3.980e-04  cgtest: -6.510e-03  t[s]:   5995.36
FluidMinimize: Iter:   6  G: -0.009101862894033  |grad|_K:  7.523e-06  alpha:  4.140e-02  linmin: -9.369e-04  cgtest:  8.603e-03  t[s]:   5995.91
FluidMinimize: Iter:   7  G: -0.009107790709572  |grad|_K:  1.989e-05  alpha:  1.081e-01  linmin:  9.330e-04  cgtest: -1.919e-03  t[s]:   5996.46
FluidMinimize: Iter:   8  G: -0.009118070555805  |grad|_K:  6.391e-06  alpha:  2.804e-02  linmin:  7.218e-03  cgtest: -2.807e-02  t[s]:   5997.01
FluidMinimize: 	Predicted alpha/alphaT>3.000000, increasing alphaT to 8.413290e-02.
FluidMinimize: Iter:   9  G: -0.009122334337926  |grad|_K:  1.101e-05  alpha:  1.113e-01  linmin: -4.754e-04  cgtest:  2.522e-02  t[s]:   5997.79
FluidMinimize: Iter:  10  G: -0.009129814476492  |grad|_K:  6.386e-06  alpha:  6.224e-02  linmin: -1.183e-03  cgtest: -1.672e-01  t[s]:   5998.33
FluidMinimize: Converged (|Delta G|<8.838873e-06 for 2 iters).

Fluid minimization # 2 changed total free energy by -2.997071e-04 at t[s]:   5998.64

-------------------- Electronic Minimization # 2 ---------------------
	FillingsUpdate:  mu: -0.173600000  nElectrons: 330.374587
ElecMinimize: Iter:   0  G: -1745.122214342834468  |grad|_K:  1.143e-04  alpha:  1.000e+00
	FillingsUpdate:  mu: -0.173600000  nElectrons: 331.076822
	SubspaceRotationAdjust: set factor to 0.00517
ElecMinimize: Iter:   1  G: -1745.232271069929084  |grad|_K:  1.678e-05  alpha:  2.030e-01  linmin:  1.068e-01  t[s]:   6551.30
	FillingsUpdate:  mu: -0.173600000  nElectrons: 331.023030
	SubspaceRotationAdjust: set factor to 0.00211
ElecMinimize: Iter:   2  G: -1745.235254164966591  |grad|_K:  3.324e-06  alpha:  2.512e-01  linmin:  1.388e-03  t[s]:   6937.69
	FillingsUpdate:  mu: -0.173600000  nElectrons: 331.033832
	SubspaceRotationAdjust: set factor to 0.00341
ElecMinimize: Iter:   3  G: -1745.235516447035707  |grad|_K:  1.990e-06  alpha:  5.058e-01  linmin:  5.162e-05  t[s]:   7327.82
	FillingsUpdate:  mu: -0.173600000  nElectrons: 331.042380
	SubspaceRotationAdjust: set factor to 0.00444
ElecMinimize: Iter:   4  G: -1745.235606178089711  |grad|_K:  1.254e-06  alpha:  4.824e-01  linmin: -2.356e-05  t[s]:   7717.25
	FillingsUpdate:  mu: -0.173600000  nElectrons: 331.049782
	SubspaceRotationAdjust: set factor to 0.00534
ElecMinimize: Iter:   5  G: -1745.235639666973384  |grad|_K:  6.198e-07  alpha:  4.535e-01  linmin: -4.838e-05  t[s]:   8100.00
	FillingsUpdate:  mu: -0.173600000  nElectrons: 331.052157
	SubspaceRotationAdjust: set factor to 0.0055
ElecMinimize: Iter:   6  G: -1745.235649340506825  |grad|_K:  4.547e-07  alpha:  5.357e-01  linmin: -6.773e-06  t[s]:   8486.43
	FillingsUpdate:  mu: -0.173600000  nElectrons: 331.052077
	SubspaceRotationAdjust: set factor to 0.00669
ElecMinimize: Iter:   7  G: -1745.235658425062411  |grad|_K:  6.023e-07  alpha:  9.350e-01  linmin:  1.167e-06  t[s]:   8874.44
	FillingsUpdate:  mu: -0.173600000  nElectrons: 331.051439
	SubspaceRotationAdjust: set factor to 0.00756
ElecMinimize: Iter:   8  G: -1745.235668758990187  |grad|_K:  5.687e-07  alpha:  6.062e-01  linmin:  3.955e-07  t[s]:   9264.44
	FillingsUpdate:  mu: -0.173600000  nElectrons: 331.051468
	SubspaceRotationAdjust: set factor to 0.00849
ElecMinimize: Iter:   9  G: -1745.235678911393052  |grad|_K:  5.372e-07  alpha:  6.680e-01  linmin:  1.303e-06  t[s]:   9655.33
	FillingsUpdate:  mu: -0.173600000  nElectrons: 331.052809
	SubspaceRotationAdjust: set factor to 0.0097
ElecMinimize: Iter:  10  G: -1745.235688019210784  |grad|_K:  4.945e-07  alpha:  6.716e-01  linmin: -5.062e-06  t[s]:  10049.46
	FillingsUpdate:  mu: -0.173600000  nElectrons: 331.054246
	SubspaceRotationAdjust: set factor to 0.0122
ElecMinimize: Iter:  11  G: -1745.235695115343788  |grad|_K:  4.246e-07  alpha:  6.175e-01  linmin: -3.220e-06  t[s]:  10439.43
	FillingsUpdate:  mu: -0.173600000  nElectrons: 331.053558
	SubspaceRotationAdjust: set factor to 0.015
ElecMinimize: Iter:  12  G: -1745.235701512882542  |grad|_K:  4.706e-07  alpha:  7.551e-01  linmin: -1.855e-06  t[s]:  10831.08
ElecMinimize: Converged (|Delta G|<8.838873e-06 for 2 iters).
Setting wave functions to eigenvectors of Hamiltonian

Electronic minimization # 2 changed total free energy by -2.872996e-04 at t[s]:  10847.95

---------------------- Fluid Minimization # 3 -----------------------
FluidMinimize: Iter:   0  G: -0.013617119295281  |grad|_K:  5.464e-05  alpha:  1.000e+00
FluidMinimize: Iter:   1  G: -0.013617120281140  |grad|_K:  5.464e-05  alpha:  1.706e-07  linmin: -1.020e-01  cgtest:  1.000e+00  t[s]:  10848.83
FluidMinimize: Encountered beta<0, resetting CG.
FluidMinimize: 	Predicted alpha/alphaT>3.000000, increasing alphaT to 5.118433e-07.
FluidMinimize: 	Predicted alpha/alphaT>3.000000, increasing alphaT to 1.535530e-06.
FluidMinimize: 	Predicted alpha/alphaT>3.000000, increasing alphaT to 4.606590e-06.
FluidMinimize: 	Predicted alpha/alphaT>3.000000, increasing alphaT to 1.381977e-05.
FluidMinimize: 	Predicted alpha/alphaT>3.000000, increasing alphaT to 4.145931e-05.
FluidMinimize: 	Predicted alpha/alphaT>3.000000, increasing alphaT to 1.243779e-04.
FluidMinimize: Iter:   2  G: -0.013667994570715  |grad|_K:  3.296e-05  alpha:  1.841e-02  linmin:  9.973e-03  cgtest: -1.127e-01  t[s]:  10850.67
FluidMinimize: Iter:   3  G: -0.013682171187427  |grad|_K:  2.098e-05  alpha:  1.460e-02  linmin:  4.171e-04  cgtest:  1.635e-01  t[s]:  10851.21
FluidMinimize: 	Predicted alpha/alphaT>3.000000, increasing alphaT to 4.380807e-02.
FluidMinimize: Iter:   4  G: -0.013707623166721  |grad|_K:  1.660e-05  alpha:  5.955e-02  linmin: -3.728e-03  cgtest: -1.030e-01  t[s]:  10852.00
FluidMinimize: Iter:   5  G: -0.013712199134767  |grad|_K:  1.268e-05  alpha:  1.630e-02  linmin: -3.286e-03  cgtest:  7.781e-03  t[s]:  10852.54
FluidMinimize: Iter:   6  G: -0.013716273346529  |grad|_K:  8.974e-06  alpha:  2.563e-02  linmin:  1.803e-03  cgtest: -6.308e-02  t[s]:  10853.09
FluidMinimize: 	Predicted alpha/alphaT>3.000000, increasing alphaT to 7.689685e-02.
FluidMinimize: Iter:   7  G: -0.013723167652798  |grad|_K:  1.254e-05  alpha:  8.954e-02  linmin: -1.850e-03  cgtest:  9.001e-02  t[s]:  10853.89
FluidMinimize: Iter:   8  G: -0.013725054880033  |grad|_K:  6.671e-06  alpha:  1.198e-02  linmin: -2.421e-03  cgtest:  3.344e-02  t[s]:  10854.44
FluidMinimize: 	Predicted alpha/alphaT>3.000000, increasing alphaT to 3.593548e-02.
FluidMinimize: Iter:   9  G: -0.013727970304651  |grad|_K:  9.510e-06  alpha:  6.641e-02  linmin:  6.072e-04  cgtest: -2.741e-02  t[s]:  10855.23
FluidMinimize: Converged (|Delta G|<2.997071e-06 for 2 iters).

Fluid minimization # 3 changed total free energy by -1.108510e-04 at t[s]:  10855.54

-------------------- Electronic Minimization # 3 ---------------------
	FillingsUpdate:  mu: -0.173600000  nElectrons: 331.188988
ElecMinimize: Iter:   0  G: -1745.224017714380125  |grad|_K:  2.464e-05  alpha:  1.000e+00
	FillingsUpdate:  mu: -0.173600000  nElectrons: 331.061777
	SubspaceRotationAdjust: set factor to 0.01
ElecMinimize: Iter:   1  G: -1745.232093414359952  |grad|_K:  1.062e-05  alpha:  2.757e-01  linmin: -1.118e-02  t[s]:  11407.77
	FillingsUpdate:  mu: -0.173600000  nElectrons: 331.102253
	SubspaceRotationAdjust: set factor to 0.0115
ElecMinimize: Iter:   2  G: -1745.234105758924443  |grad|_K:  5.529e-06  alpha:  3.710e-01  linmin: -1.098e-03  t[s]:  11796.13
	FillingsUpdate:  mu: -0.173600000  nElectrons: 331.096113
	SubspaceRotationAdjust: set factor to 0.0142
ElecMinimize: Iter:   3  G: -1745.234973357753688  |grad|_K:  4.173e-06  alpha:  6.013e-01  linmin:  4.183e-05  t[s]:  12185.25
	FillingsUpdate:  mu: -0.173600000  nElectrons: 331.079652
	SubspaceRotationAdjust: set factor to 0.0145
ElecMinimize: Iter:   4  G: -1745.235477171602497  |grad|_K:  3.478e-06  alpha:  6.160e-01  linmin:  1.081e-04  t[s]:  12572.31
	FillingsUpdate:  mu: -0.173600000  nElectrons: 331.093570
	SubspaceRotationAdjust: set factor to 0.0115
ElecMinimize: Iter:   5  G: -1745.235731628644317  |grad|_K:  2.189e-06  alpha:  4.484e-01  linmin: -3.703e-05  t[s]:  12963.84
	FillingsUpdate:  mu: -0.173600000  nElectrons: 331.085871
	SubspaceRotationAdjust: set factor to 0.0103
ElecMinimize: Iter:   6  G: -1745.235833631198375  |grad|_K:  1.310e-06  alpha:  4.528e-01  linmin:  4.132e-05  t[s]:  13356.94
	FillingsUpdate:  mu: -0.173600000  nElectrons: 331.087090
	SubspaceRotationAdjust: set factor to 0.0127
ElecMinimize: Iter:   7  G: -1745.235867481273999  |grad|_K:  7.887e-07  alpha:  4.201e-01  linmin: -2.824e-06  t[s]:  13744.35
	FillingsUpdate:  mu: -0.173600000  nElectrons: 331.088719
	SubspaceRotationAdjust: set factor to 0.0155
ElecMinimize: Iter:   8  G: -1745.235882721768803  |grad|_K:  5.946e-07  alpha:  5.213e-01  linmin: -8.072e-06  t[s]:  14134.20
	FillingsUpdate:  mu: -0.173600000  nElectrons: 331.086276
	SubspaceRotationAdjust: set factor to 0.0185
ElecMinimize: Iter:   9  G: -1745.235893662990975  |grad|_K:  6.185e-07  alpha:  6.584e-01  linmin:  4.669e-06  t[s]:  14520.98
	FillingsUpdate:  mu: -0.173600000  nElectrons: 331.087790
	SubspaceRotationAdjust: set factor to 0.0199
ElecMinimize: Iter:  10  G: -1745.235908155000061  |grad|_K:  7.865e-07  alpha:  8.063e-01  linmin: -7.419e-07  t[s]:  14909.33
	FillingsUpdate:  mu: -0.173600000  nElectrons: 331.083154
	SubspaceRotationAdjust: set factor to 0.0194
ElecMinimize: Iter:  11  G: -1745.235928510781605  |grad|_K:  8.550e-07  alpha:  7.001e-01  linmin:  1.509e-05  t[s]:  15299.12
	FillingsUpdate:  mu: -0.173600000  nElectrons: 331.085248
	SubspaceRotationAdjust: set factor to 0.0164
ElecMinimize: Iter:  12  G: -1745.235947772517193  |grad|_K:  7.464e-07  alpha:  5.611e-01  linmin:  2.810e-06  t[s]:  15693.23
	FillingsUpdate:  mu: -0.173600000  nElectrons: 331.080780
	SubspaceRotationAdjust: set factor to 0.0121
ElecMinimize: Iter:  13  G: -1745.235958621396321  |grad|_K:  5.593e-07  alpha:  4.143e-01  linmin:  6.777e-06  t[s]:  16082.71
	FillingsUpdate:  mu: -0.173600000  nElectrons: 331.082008
	SubspaceRotationAdjust: set factor to 0.0111
ElecMinimize: Iter:  14  G: -1745.235964753722101  |grad|_K:  3.358e-07  alpha:  4.172e-01  linmin: -3.280e-06  t[s]:  16473.16
	FillingsUpdate:  mu: -0.173600000  nElectrons: 331.081999
	SubspaceRotationAdjust: set factor to 0.0124
ElecMinimize: Iter:  15  G: -1745.235967080031969  |grad|_K:  2.106e-07  alpha:  4.390e-01  linmin:  9.837e-06  t[s]:  16860.69
	FillingsUpdate:  mu: -0.173600000  nElectrons: 331.081390
	SubspaceRotationAdjust: set factor to 0.0132
ElecMinimize: Iter:  16  G: -1745.235967998286469  |grad|_K:  1.342e-07  alpha:  4.406e-01  linmin: -2.577e-05  t[s]:  17252.12
ElecMinimize: Converged (|Delta G|<2.997071e-06 for 2 iters).
Setting wave functions to eigenvectors of Hamiltonian

Electronic minimization # 3 changed total free energy by -1.556344e-04 at t[s]:  17269.16

---------------------- Fluid Minimization # 4 -----------------------
FluidMinimize: Iter:   0  G: -0.018847179469957  |grad|_K:  5.702e-05  alpha:  1.000e+00
FluidMinimize: Iter:   1  G: -0.018847182363911  |grad|_K:  5.701e-05  alpha:  4.600e-07  linmin: -1.128e-01  cgtest:  1.000e+00  t[s]:  17270.02
FluidMinimize: Encountered beta<0, resetting CG.
FluidMinimize: 	Predicted alpha/alphaT>3.000000, increasing alphaT to 1.379954e-06.
FluidMinimize: 	Predicted alpha/alphaT>3.000000, increasing alphaT to 4.139861e-06.
FluidMinimize: 	Predicted alpha/alphaT>3.000000, increasing alphaT to 1.241958e-05.
FluidMinimize: 	Predicted alpha/alphaT>3.000000, increasing alphaT to 3.725875e-05.
FluidMinimize: 	Predicted alpha/alphaT>3.000000, increasing alphaT to 1.117762e-04.
FluidMinimize: 	Predicted alpha/alphaT>3.000000, increasing alphaT to 3.353287e-04.
FluidMinimize: Iter:   2  G: -0.018902170961575  |grad|_K:  1.785e-05  alpha:  1.796e-02  linmin:  9.676e-03  cgtest: -1.331e-01  t[s]:  17271.78
FluidMinimize: Iter:   3  G: -0.018906892086205  |grad|_K:  1.974e-05  alpha:  1.628e-02  linmin: -7.371e-05  cgtest:  6.432e-02  t[s]:  17272.35
FluidMinimize: Iter:   4  G: -0.018921235068155  |grad|_K:  6.862e-06  alpha:  3.767e-02  linmin: -4.493e-03  cgtest: -3.738e-01  t[s]:  17272.88
FluidMinimize: Iter:   5  G: -0.018922797694374  |grad|_K:  1.139e-05  alpha:  3.311e-02  linmin: -7.716e-05  cgtest: -2.098e-02  t[s]:  17273.42
FluidMinimize: Iter:   6  G: -0.018927313767908  |grad|_K:  1.012e-05  alpha:  3.595e-02  linmin:  7.133e-05  cgtest:  1.316e-01  t[s]:  17273.97
FluidMinimize: Iter:   7  G: -0.018932357662399  |grad|_K:  1.193e-05  alpha:  5.055e-02  linmin: -1.379e-03  cgtest:  1.791e-02  t[s]:  17274.52
FluidMinimize: Iter:   8  G: -0.018938988299614  |grad|_K:  1.608e-05  alpha:  4.727e-02  linmin:  9.422e-04  cgtest: -5.954e-02  t[s]:  17275.08
FluidMinimize: Iter:   9  G: -0.018942350887250  |grad|_K:  9.983e-06  alpha:  1.308e-02  linmin: -2.256e-03  cgtest:  1.253e-01  t[s]:  17275.63
FluidMinimize: 	Predicted alpha/alphaT>3.000000, increasing alphaT to 3.924526e-02.
FluidMinimize: Iter:  10  G: -0.018952417185373  |grad|_K:  1.559e-05  alpha:  9.874e-02  linmin: -4.547e-03  cgtest: -6.658e-02  t[s]:  17276.42
FluidMinimize: Iter:  11  G: -0.018962626746754  |grad|_K:  1.402e-05  alpha:  3.963e-02  linmin: -4.353e-03  cgtest: -8.686e-02  t[s]:  17276.98
FluidMinimize: Iter:  12  G: -0.018965089074959  |grad|_K:  1.052e-05  alpha:  1.248e-02  linmin: -7.636e-04  cgtest: -2.670e-03  t[s]:  17277.51
FluidMinimize: 	Predicted alpha/alphaT>3.000000, increasing alphaT to 3.745347e-02.
FluidMinimize: Iter:  13  G: -0.018971093162992  |grad|_K:  9.750e-06  alpha:  5.580e-02  linmin:  6.901e-04  cgtest: -3.955e-03  t[s]:  17278.32
FluidMinimize: Iter:  14  G: -0.018974889637206  |grad|_K:  1.232e-05  alpha:  4.134e-02  linmin:  2.553e-04  cgtest:  3.799e-02  t[s]:  17278.85
FluidMinimize: Iter:  15  G: -0.018977859414849  |grad|_K:  1.423e-05  alpha:  1.995e-02  linmin: -8.753e-04  cgtest:  4.335e-02  t[s]:  17279.41
FluidMinimize: Iter:  16  G: -0.018987260062506  |grad|_K:  8.992e-06  alpha:  4.686e-02  linmin: -2.708e-03  cgtest:  6.728e-02  t[s]:  17279.96
FluidMinimize: Iter:  17  G: -0.018991528309623  |grad|_K:  1.280e-05  alpha:  5.322e-02  linmin: -2.445e-04  cgtest: -2.511e-02  t[s]:  17280.52
FluidMinimize: Iter:  18  G: -0.018994549679687  |grad|_K:  1.313e-05  alpha:  1.870e-02  linmin: -1.042e-03  cgtest:  1.129e-02  t[s]:  17281.06
FluidMinimize: Iter:  19  G: -0.019000845199245  |grad|_K:  8.876e-06  alpha:  3.594e-02  linmin: -5.976e-03  cgtest: -4.462e-02  t[s]:  17281.64
FluidMinimize: 	Predicted alpha/alphaT>3.000000, increasing alphaT to 1.078324e-01.
FluidMinimize: Iter:  20  G: -0.019011119640890  |grad|_K:  1.104e-05  alpha:  1.247e-01  linmin: -1.544e-03  cgtest: -1.869e-01  t[s]:  17282.43
FluidMinimize: Iter:  21  G: -0.019017023035928  |grad|_K:  1.004e-05  alpha:  4.659e-02  linmin: -3.186e-03  cgtest:  4.793e-02  t[s]:  17283.01
FluidMinimize: Iter:  22  G: -0.019024440615022  |grad|_K:  3.300e-05  alpha:  9.879e-02  linmin:  3.661e-02  cgtest: -6.442e-02  t[s]:  17283.55
FluidMinimize: Iter:  23  G: -0.019024440620530  |grad|_K:  3.300e-05  alpha:  8.125e-09  linmin: -1.789e-02  cgtest:  1.000e+00  t[s]:  17284.12
FluidMinimize: 	Predicted alpha/alphaT>3.000000, increasing alphaT to 2.437482e-08.
FluidMinimize: 	Predicted alpha/alphaT>3.000000, increasing alphaT to 7.312446e-08.
FluidMinimize: 	Predicted alpha/alphaT>3.000000, increasing alphaT to 2.193734e-07.
FluidMinimize: 	Predicted alpha/alphaT>3.000000, increasing alphaT to 6.581201e-07.
FluidMinimize: 	Predicted alpha/alphaT>3.000000, increasing alphaT to 1.974360e-06.
FluidMinimize: 	Predicted alpha/alphaT>3.000000, increasing alphaT to 5.923081e-06.
FluidMinimize: Iter:  24  G: -0.019032178558159  |grad|_K:  9.640e-06  alpha:  7.299e-03  linmin: -1.334e-03  cgtest:  2.879e-02  t[s]:  17285.88
FluidMinimize: 	Predicted alpha/alphaT>3.000000, increasing alphaT to 2.189589e-02.
FluidMinimize: 	Predicted alpha/alphaT>3.000000, increasing alphaT to 6.568768e-02.
FluidMinimize: Iter:  25  G: -0.019044732849174  |grad|_K:  1.494e-05  alpha:  1.358e-01  linmin: -7.504e-03  cgtest: -1.766e-02  t[s]:  17286.97
FluidMinimize: Iter:  26  G: -0.019052643048518  |grad|_K:  1.256e-05  alpha:  3.127e-02  linmin: -1.847e-02  cgtest:  7.712e-02  t[s]:  17287.51
FluidMinimize: Iter:  27  G: -0.019057320706967  |grad|_K:  2.085e-05  alpha:  2.694e-02  linmin:  4.380e-03  cgtest: -4.746e-02  t[s]:  17288.07
FluidMinimize: Iter:  28  G: -0.019064142562588  |grad|_K:  2.593e-05  alpha:  1.176e-02  linmin: -2.736e-02  cgtest:  9.095e-01  t[s]:  17288.61
FluidMinimize: Iter:  29  G: -0.019071516777504  |grad|_K:  1.558e-05  alpha:  1.047e-02  linmin: -6.495e-04  cgtest: -2.175e-01  t[s]:  17289.18
FluidMinimize: 	Predicted alpha/alphaT>3.000000, increasing alphaT to 3.142451e-02.
FluidMinimize: Iter:  30  G: -0.019079997759144  |grad|_K:  1.970e-05  alpha:  3.567e-02  linmin: -2.373e-03  cgtest:  7.679e-02  t[s]:  17289.95
FluidMinimize: Iter:  31  G: -0.019094402893325  |grad|_K:  3.546e-05  alpha:  3.902e-02  linmin:  2.844e-02  cgtest: -1.773e-01  t[s]:  17290.51
FluidMinimize: Iter:  32  G: -0.019095894949307  |grad|_K:  3.489e-05  alpha:  9.593e-04  linmin: -4.916e-02  cgtest:  9.971e-01  t[s]:  17291.07
FluidMinimize: Encountered beta<0, resetting CG.
FluidMinimize: 	Predicted alpha/alphaT>3.000000, increasing alphaT to 2.878004e-03.
FluidMinimize: Iter:  33  G: -0.019103615055266  |grad|_K:  9.407e-06  alpha:  6.435e-03  linmin: -5.786e-03  cgtest:  1.275e-01  t[s]:  17291.92
FluidMinimize: 	Predicted alpha/alphaT>3.000000, increasing alphaT to 1.930628e-02.
FluidMinimize: 	Predicted alpha/alphaT>3.000000, increasing alphaT to 5.791884e-02.
FluidMinimize: Iter:  34  G: -0.019114817057188  |grad|_K:  1.965e-05  alpha:  1.412e-01  linmin:  2.079e-02  cgtest: -1.395e-01  t[s]:  17292.95
FluidMinimize: Iter:  35  G: -0.019119126006854  |grad|_K:  1.559e-05  alpha:  2.591e-02  linmin:  3.169e-02  cgtest:  1.019e-01  t[s]:  17293.51
FluidMinimize: Iter:  36  G: -0.019122759135748  |grad|_K:  2.075e-05  alpha:  1.943e-02  linmin:  5.017e-04  cgtest:  1.595e-01  t[s]:  17294.04
FluidMinimize: 	Predicted alpha/alphaT>3.000000, increasing alphaT to 5.829723e-02.
FluidMinimize: Iter:  37  G: -0.019148351663215  |grad|_K:  2.550e-05  alpha:  6.361e-02  linmin:  1.999e-02  cgtest: -2.428e-01  t[s]:  17294.88
FluidMinimize: Iter:  38  G: -0.019154058368608  |grad|_K:  1.816e-05  alpha:  1.032e-02  linmin: -9.477e-03  cgtest:  9.046e-01  t[s]:  17295.44
FluidMinimize: Encountered beta<0, resetting CG.
FluidMinimize: Iter:  39  G: -0.019157895849152  |grad|_K:  1.187e-05  alpha:  1.187e-02  linmin: -8.793e-03  cgtest:  9.626e-02  t[s]:  17296.02
FluidMinimize: Iter:  40  G: -0.019161679379455  |grad|_K:  1.967e-05  alpha:  2.667e-02  linmin:  1.658e-03  cgtest: -8.073e-02  t[s]:  17296.57
FluidMinimize: Iter:  41  G: -0.019170558188568  |grad|_K:  1.686e-05  alpha:  2.425e-02  linmin:  1.737e-03  cgtest:  5.057e-01  t[s]:  17297.14
FluidMinimize: Iter:  42  G: -0.019173540300127  |grad|_K:  1.350e-05  alpha:  1.135e-02  linmin:  2.843e-03  cgtest: -6.109e-02  t[s]:  17297.71
FluidMinimize: Iter:  43  G: -0.019177171055880  |grad|_K:  1.336e-05  alpha:  2.109e-02  linmin:  4.884e-04  cgtest:  2.302e-02  t[s]:  17298.27
FluidMinimize: Iter:  44  G: -0.019181788954009  |grad|_K:  1.833e-05  alpha:  2.817e-02  linmin:  9.715e-03  cgtest:  1.001e-02  t[s]:  17298.83
FluidMinimize: Iter:  45  G: -0.019185302881058  |grad|_K:  1.854e-05  alpha:  1.281e-02  linmin:  7.054e-04  cgtest:  2.972e-01  t[s]:  17299.41
FluidMinimize: Iter:  46  G: -0.019191414250901  |grad|_K:  1.105e-05  alpha:  1.833e-02  linmin: -3.092e-03  cgtest: -1.841e-01  t[s]:  17299.94
FluidMinimize: 	Predicted alpha/alphaT>3.000000, increasing alphaT to 5.499062e-02.
FluidMinimize: Iter:  47  G: -0.019198871433168  |grad|_K:  1.983e-05  alpha:  6.106e-02  linmin: -4.677e-03  cgtest: -1.014e-01  t[s]:  17300.78
FluidMinimize: Iter:  48  G: -0.019200856351985  |grad|_K:  1.530e-05  alpha:  2.921e-03  linmin: -7.922e-02  cgtest:  9.646e-01  t[s]:  17301.31
FluidMinimize: Encountered beta<0, resetting CG.
FluidMinimize: 	Predicted alpha/alphaT>3.000000, increasing alphaT to 8.764471e-03.
FluidMinimize: Iter:  49  G: -0.019203158443031  |grad|_K:  1.266e-05  alpha:  1.021e-02  linmin:  1.344e-03  cgtest: -2.305e-02  t[s]:  17302.14
FluidMinimize: Iter:  50  G: -0.019206630725848  |grad|_K:  1.025e-05  alpha:  2.269e-02  linmin: -8.622e-04  cgtest:  1.723e-01  t[s]:  17302.67
FluidMinimize: Iter:  51  G: -0.019209056419809  |grad|_K:  1.135e-05  alpha:  2.370e-02  linmin:  1.623e-03  cgtest: -9.936e-04  t[s]:  17303.23
FluidMinimize: Iter:  52  G: -0.019212347677937  |grad|_K:  1.592e-05  alpha:  2.693e-02  linmin: -4.354e-05  cgtest:  9.169e-02  t[s]:  17303.77
FluidMinimize: Iter:  53  G: -0.019215286191258  |grad|_K:  1.208e-05  alpha:  1.373e-02  linmin:  1.170e-02  cgtest: -2.004e-01  t[s]:  17304.32
FluidMinimize: 	Predicted alpha/alphaT>3.000000, increasing alphaT to 4.117906e-02.
FluidMinimize: 	Predicted alpha/alphaT>3.000000, increasing alphaT to 1.235372e-01.
FluidMinimize: Iter:  54  G: -0.019226542532196  |grad|_K:  1.515e-05  alpha:  5.852e-02  linmin: -5.965e-02  cgtest:  2.245e-01  t[s]:  17305.35
FluidMinimize: Iter:  55  G: -0.019230540716927  |grad|_K:  1.149e-05  alpha:  1.273e-02  linmin: -1.024e-02  cgtest: -1.491e-01  t[s]:  17305.92
FluidMinimize: Iter:  56  G: -0.019233578300856  |grad|_K:  1.981e-05  alpha:  2.328e-02  linmin:  2.222e-02  cgtest:  2.309e-02  t[s]:  17306.46
FluidMinimize: Iter:  57  G: -0.019235039817669  |grad|_K:  2.034e-05  alpha:  4.543e-03  linmin: -1.020e-02  cgtest:  9.780e-01  t[s]:  17307.02
FluidMinimize: Iter:  58  G: -0.019237658809912  |grad|_K:  1.045e-05  alpha:  6.378e-03  linmin: -6.847e-03  cgtest:  7.485e-02  t[s]:  17307.56
FluidMinimize: Iter:  59  G: -0.019239308856847  |grad|_K:  1.008e-05  alpha:  1.490e-02  linmin: -6.185e-04  cgtest: -7.626e-02  t[s]:  17308.11
FluidMinimize: Iter:  60  G: -0.019243351822506  |grad|_K:  9.560e-06  alpha:  3.811e-02  linmin: -1.974e-02  cgtest:  7.429e-02  t[s]:  17308.65
FluidMinimize: Iter:  61  G: -0.019245747441799  |grad|_K:  1.464e-05  alpha:  2.267e-02  linmin: -2.892e-03  cgtest: -4.497e-02  t[s]:  17309.21
FluidMinimize: Iter:  62  G: -0.019248882379824  |grad|_K:  1.226e-05  alpha:  1.463e-02  linmin: -8.839e-05  cgtest:  3.005e-01  t[s]:  17309.75
FluidMinimize: Iter:  63  G: -0.019252566052224  |grad|_K:  1.473e-05  alpha:  2.431e-02  linmin: -1.863e-02  cgtest:  5.682e-02  t[s]:  17310.31
FluidMinimize: Iter:  64  G: -0.019255992228820  |grad|_K:  1.554e-05  alpha:  1.427e-02  linmin: -2.328e-03  cgtest: -1.212e-01  t[s]:  17310.86
FluidMinimize: Iter:  65  G: -0.019258671015092  |grad|_K:  1.055e-05  alpha:  1.124e-02  linmin: -1.091e-04  cgtest:  2.285e-01  t[s]:  17311.42
FluidMinimize: Iter:  66  G: -0.019260512147821  |grad|_K:  1.447e-05  alpha:  1.690e-02  linmin: -3.203e-03  cgtest:  7.212e-03  t[s]:  17311.96
FluidMinimize: Iter:  67  G: -0.019263494972090  |grad|_K:  1.187e-05  alpha:  1.421e-02  linmin:  1.432e-03  cgtest: -1.377e-01  t[s]:  17312.51
FluidMinimize: Iter:  68  G: -0.019266544771854  |grad|_K:  1.795e-05  alpha:  2.445e-02  linmin:  1.705e-02  cgtest:  1.339e-01  t[s]:  17313.07
FluidMinimize: Iter:  69  G: -0.019268804953770  |grad|_K:  1.679e-05  alpha:  8.988e-03  linmin:  3.209e-03  cgtest:  2.459e-01  t[s]:  17313.62
FluidMinimize: Iter:  70  G: -0.019274350900086  |grad|_K:  9.045e-06  alpha:  2.025e-02  linmin: -6.754e-03  cgtest: -2.315e-01  t[s]:  17314.16
FluidMinimize: Iter:  71  G: -0.019276375391293  |grad|_K:  1.482e-05  alpha:  2.405e-02  linmin:  3.905e-03  cgtest: -8.063e-02  t[s]:  17314.72
FluidMinimize: Iter:  72  G: -0.019278656269687  |grad|_K:  1.439e-05  alpha:  1.146e-02  linmin:  1.846e-04  cgtest:  3.630e-01  t[s]:  17315.26
FluidMinimize: Iter:  73  G: -0.019282312472241  |grad|_K:  1.177e-05  alpha:  1.803e-02  linmin: -3.154e-03  cgtest: -7.169e-02  t[s]:  17315.82
FluidMinimize: Iter:  74  G: -0.019283468089348  |grad|_K:  9.898e-06  alpha:  7.974e-03  linmin: -2.214e-03  cgtest:  5.194e-03  t[s]:  17316.35
FluidMinimize: 	Predicted alpha/alphaT>3.000000, increasing alphaT to 2.392298e-02.
FluidMinimize: Iter:  75  G: -0.019285893145195  |grad|_K:  1.271e-05  alpha:  2.495e-02  linmin:  2.857e-03  cgtest:  1.078e-01  t[s]:  17317.15
FluidMinimize: Iter:  76  G: -0.019287575954951  |grad|_K:  1.563e-05  alpha:  1.187e-02  linmin:  4.074e-03  cgtest:  1.653e-02  t[s]:  17317.70
FluidMinimize: Iter:  77  G: -0.019291258340388  |grad|_K:  1.133e-05  alpha:  1.609e-02  linmin:  3.614e-04  cgtest: -1.600e-01  t[s]:  17318.25
FluidMinimize: Iter:  78  G: -0.019294972228151  |grad|_K:  1.840e-05  alpha:  3.289e-02  linmin:  1.419e-02  cgtest: -4.208e-03  t[s]:  17318.78
FluidMinimize: Iter:  79  G: -0.019296664020921  |grad|_K:  1.287e-05  alpha:  6.727e-03  linmin:  2.975e-03  cgtest:  4.411e-01  t[s]:  17319.34
FluidMinimize: Iter:  80  G: -0.019299170728951  |grad|_K:  1.006e-05  alpha:  1.576e-02  linmin: -7.710e-04  cgtest: -2.588e-02  t[s]:  17319.88
FluidMinimize: Iter:  81  G: -0.019300946797066  |grad|_K:  1.512e-05  alpha:  1.812e-02  linmin:  4.853e-03  cgtest: -5.132e-02  t[s]:  17320.45
FluidMinimize: Iter:  82  G: -0.019303310571680  |grad|_K:  1.070e-05  alpha:  1.134e-02  linmin:  4.103e-05  cgtest:  3.071e-01  t[s]:  17321.00
FluidMinimize: Iter:  83  G: -0.019304912545353  |grad|_K:  1.332e-05  alpha:  1.429e-02  linmin: -7.776e-03  cgtest:  1.048e-02  t[s]:  17321.58
FluidMinimize: Iter:  84  G: -0.019306830287791  |grad|_K:  9.562e-06  alpha:  1.069e-02  linmin: -6.042e-06  cgtest: -1.661e-01  t[s]:  17322.14
FluidMinimize: Iter:  85  G: -0.019309229242507  |grad|_K:  1.297e-05  alpha:  2.766e-02  linmin:  3.099e-03  cgtest:  1.024e-01  t[s]:  17322.70
FluidMinimize: Iter:  86  G: -0.019312052944919  |grad|_K:  1.977e-05  alpha:  1.832e-02  linmin: -4.820e-05  cgtest:  4.826e-02  t[s]:  17323.25
FluidMinimize: Iter:  87  G: -0.019316660991602  |grad|_K:  9.278e-06  alpha:  1.145e-02  linmin: -1.548e-03  cgtest:  9.139e-03  t[s]:  17323.83
FluidMinimize: 	Predicted alpha/alphaT>3.000000, increasing alphaT to 3.433663e-02.
FluidMinimize: Iter:  88  G: -0.019320854836760  |grad|_K:  9.315e-06  alpha:  4.842e-02  linmin: -1.505e-02  cgtest:  1.257e-01  t[s]:  17324.62
FluidMinimize: Iter:  89  G: -0.019322518132571  |grad|_K:  1.323e-05  alpha:  1.924e-02  linmin:  1.553e-03  cgtest: -1.063e-01  t[s]:  17325.19
FluidMinimize: Iter:  90  G: -0.019324576781445  |grad|_K:  1.295e-05  alpha:  1.199e-02  linmin: -6.690e-04  cgtest:  1.539e-01  t[s]:  17325.73
FluidMinimize: Iter:  91  G: -0.019327520829702  |grad|_K:  9.398e-06  alpha:  1.775e-02  linmin: -6.442e-03  cgtest:  4.936e-02  t[s]:  17326.30
FluidMinimize: Iter:  92  G: -0.019328839100060  |grad|_K:  1.289e-05  alpha:  1.485e-02  linmin: -1.658e-04  cgtest: -6.644e-02  t[s]:  17326.86
FluidMinimize: Iter:  93  G: -0.019331078084895  |grad|_K:  1.011e-05  alpha:  1.378e-02  linmin:  3.705e-03  cgtest:  3.758e-02  t[s]:  17327.42
FluidMinimize: Iter:  94  G: -0.019333983071696  |grad|_K:  1.836e-05  alpha:  3.132e-02  linmin:  5.048e-03  cgtest:  1.169e-01  t[s]:  17327.97
FluidMinimize: Iter:  95  G: -0.019336431178665  |grad|_K:  1.388e-05  alpha:  1.056e-02  linmin:  2.991e-02  cgtest: -2.957e-01  t[s]:  17328.53
FluidMinimize: Iter:  96  G: -0.019338093674073  |grad|_K:  9.822e-06  alpha:  1.182e-02  linmin:  2.613e-03  cgtest:  4.618e-01  t[s]:  17329.07
FluidMinimize: 	Predicted alpha/alphaT>3.000000, increasing alphaT to 3.546312e-02.
FluidMinimize: Iter:  97  G: -0.019341863101517  |grad|_K:  1.873e-05  alpha:  4.144e-02  linmin:  1.153e-02  cgtest: -2.885e-02  t[s]:  17329.88
FluidMinimize: Iter:  98  G: -0.019343868837678  |grad|_K:  1.151e-05  alpha:  9.066e-03  linmin:  2.971e-02  cgtest: -3.869e-01  t[s]:  17330.41
FluidMinimize: 	Predicted alpha/alphaT>3.000000, increasing alphaT to 2.719727e-02.
FluidMinimize: Iter:  99  G: -0.019346200082391  |grad|_K:  1.329e-05  alpha:  2.965e-02  linmin:  3.017e-03  cgtest:  5.326e-01  t[s]:  17331.23
FluidMinimize: Iter: 100  G: -0.019350703030411  |grad|_K:  1.749e-05  alpha:  2.712e-02  linmin: -1.716e-02  cgtest: -3.329e-02  t[s]:  17331.76
FluidMinimize: None of the convergence criteria satisfied after 100 iterations.

Fluid minimization # 4 changed total free energy by -5.035236e-04 at t[s]:  17332.07

-------------------- Electronic Minimization # 4 ---------------------
	FillingsUpdate:  mu: -0.173600000  nElectrons: 331.161376
ElecMinimize: Iter:   0  G: -1745.235761498890270  |grad|_K:  8.174e-06  alpha:  1.000e+00
	FillingsUpdate:  mu: -0.173600000  nElectrons: 331.108391
	SubspaceRotationAdjust: set factor to 0.0165
ElecMinimize: Iter:   1  G: -1745.236468605926348  |grad|_K:  1.599e-06  alpha:  2.262e-01  linmin:  2.976e-03  t[s]:  17890.31
	FillingsUpdate:  mu: -0.173600000  nElectrons: 331.104909
	SubspaceRotationAdjust: set factor to 0.026
ElecMinimize: Iter:   2  G: -1745.236519656755490  |grad|_K:  7.971e-07  alpha:  4.265e-01  linmin: -1.434e-04  t[s]:  18275.63
	FillingsUpdate:  mu: -0.173600000  nElectrons: 331.103841
	SubspaceRotationAdjust: set factor to 0.0331
ElecMinimize: Iter:   3  G: -1745.236536004023947  |grad|_K:  6.079e-07  alpha:  5.473e-01  linmin: -1.061e-05  t[s]:  18665.37
	FillingsUpdate:  mu: -0.173600000  nElectrons: 331.103838
	SubspaceRotationAdjust: set factor to 0.0386
ElecMinimize: Iter:   4  G: -1745.236546491086756  |grad|_K:  5.075e-07  alpha:  6.039e-01  linmin: -1.337e-05  t[s]:  19050.12
	FillingsUpdate:  mu: -0.173600000  nElectrons: 331.101778
	SubspaceRotationAdjust: set factor to 0.0333
ElecMinimize: Iter:   5  G: -1745.236554341891633  |grad|_K:  5.385e-07  alpha:  6.488e-01  linmin:  5.320e-06  t[s]:  19440.54
	FillingsUpdate:  mu: -0.173600000  nElectrons: 331.104545
	SubspaceRotationAdjust: set factor to 0.0235
ElecMinimize: Iter:   6  G: -1745.236556818447980  |grad|_K:  4.727e-07  alpha:  1.819e-01  linmin:  3.525e-05  t[s]:  19827.21
	FillingsUpdate:  mu: -0.173600000  nElectrons: 331.103405
	SubspaceRotationAdjust: set factor to 0.0315
ElecMinimize: Iter:   7  G: -1745.236561435964859  |grad|_K:  3.456e-07  alpha:  4.403e-01  linmin:  3.740e-05  t[s]:  20217.58
	FillingsUpdate:  mu: -0.173600000  nElectrons: 331.101923
	SubspaceRotationAdjust: set factor to 0.0261
ElecMinimize: Iter:   8  G: -1745.236564294388245  |grad|_K:  3.875e-07  alpha:  5.097e-01  linmin:  3.328e-06  t[s]:  20608.17
	FillingsUpdate:  mu: -0.173600000  nElectrons: 331.103978
	SubspaceRotationAdjust: set factor to 0.0192
ElecMinimize: Iter:   9  G: -1745.236565882529021  |grad|_K:  3.238e-07  alpha:  2.251e-01  linmin:  1.131e-05  t[s]:  20996.18
	FillingsUpdate:  mu: -0.173600000  nElectrons: 331.103700
	SubspaceRotationAdjust: set factor to 0.0264
ElecMinimize: Iter:  10  G: -1745.236568253743371  |grad|_K:  2.658e-07  alpha:  4.812e-01  linmin: -1.307e-05  t[s]:  21383.15
	FillingsUpdate:  mu: -0.173600000  nElectrons: 331.102416
	SubspaceRotationAdjust: set factor to 0.0234
ElecMinimize: Iter:  11  G: -1745.236569515530846  |grad|_K:  2.452e-07  alpha:  3.799e-01  linmin: -2.377e-06  t[s]:  21769.19
	FillingsUpdate:  mu: -0.173600000  nElectrons: 331.103526
	SubspaceRotationAdjust: set factor to 0.0185
ElecMinimize: Iter:  12  G: -1745.236570328588641  |grad|_K:  1.873e-07  alpha:  2.879e-01  linmin: -1.360e-06  t[s]:  22157.17
ElecMinimize: Converged (|Delta G|<1.556344e-06 for 2 iters).
Setting wave functions to eigenvectors of Hamiltonian

Electronic minimization # 4 changed total free energy by -9.880674e-05 at t[s]:  22174.80

---------------------- Fluid Minimization # 5 -----------------------
FluidMinimize: Iter:   0  G: -0.023599875508126  |grad|_K:  5.622e-05  alpha:  1.000e+00
FluidMinimize: Iter:   1  G: -0.023599884131764  |grad|_K:  5.621e-05  alpha:  1.410e-06  linmin: -1.237e-01  cgtest:  1.000e+00  t[s]:  22175.67
FluidMinimize: Encountered beta<0, resetting CG.
FluidMinimize: 	Predicted alpha/alphaT>3.000000, increasing alphaT to 4.229958e-06.
FluidMinimize: 	Predicted alpha/alphaT>3.000000, increasing alphaT to 1.268988e-05.
FluidMinimize: 	Predicted alpha/alphaT>3.000000, increasing alphaT to 3.806963e-05.
FluidMinimize: 	Predicted alpha/alphaT>3.000000, increasing alphaT to 1.142089e-04.
FluidMinimize: 	Predicted alpha/alphaT>3.000000, increasing alphaT to 3.426266e-04.
FluidMinimize: 	Predicted alpha/alphaT>3.000000, increasing alphaT to 1.027880e-03.
FluidMinimize: Iter:   2  G: -0.023635423923239  |grad|_K:  3.095e-05  alpha:  1.144e-02  linmin: -4.467e-03  cgtest:  4.339e-02  t[s]:  22177.46
FluidMinimize: Iter:   3  G: -0.023644068558690  |grad|_K:  2.493e-05  alpha:  8.773e-03  linmin:  3.695e-03  cgtest: -5.390e-02  t[s]:  22178.01
FluidMinimize: Iter:   4  G: -0.023649110362995  |grad|_K:  1.655e-05  alpha:  8.608e-03  linmin:  8.530e-04  cgtest:  2.096e-01  t[s]:  22178.57
FluidMinimize: Iter:   5  G: -0.023654935804819  |grad|_K:  2.495e-05  alpha:  2.094e-02  linmin: -2.103e-02  cgtest:  7.264e-02  t[s]:  22179.13
FluidMinimize: Iter:   6  G: -0.023659792512676  |grad|_K:  1.252e-05  alpha:  7.137e-03  linmin: -3.514e-03  cgtest: -3.129e-01  t[s]:  22179.69
FluidMinimize: Iter:   7  G: -0.023662337747953  |grad|_K:  1.096e-05  alpha:  1.620e-02  linmin:  9.265e-04  cgtest:  1.530e-01  t[s]:  22180.26
FluidMinimize: Converged (|Delta G|<5.035236e-06 for 2 iters).

Fluid minimization # 5 changed total free energy by -6.246224e-05 at t[s]:  22180.58

-------------------- Electronic Minimization # 5 ---------------------
	FillingsUpdate:  mu: -0.173600000  nElectrons: 330.972266
ElecMinimize: Iter:   0  G: -1745.232385575290436  |grad|_K:  2.310e-05  alpha:  1.000e+00
	FillingsUpdate:  mu: -0.173600000  nElectrons: 331.109267
	SubspaceRotationAdjust: set factor to 0.0245
ElecMinimize: Iter:   1  G: -1745.236565314249219  |grad|_K:  2.286e-06  alpha:  1.702e-01  linmin:  1.796e-02  t[s]:  22736.32
	FillingsUpdate:  mu: -0.173600000  nElectrons: 331.112990
	SubspaceRotationAdjust: set factor to 0.0294
ElecMinimize: Iter:   2  G: -1745.236646899605603  |grad|_K:  8.946e-07  alpha:  3.375e-01  linmin:  7.492e-05  t[s]:  23126.71
	FillingsUpdate:  mu: -0.173600000  nElectrons: 331.119372
	SubspaceRotationAdjust: set factor to 0.0204
ElecMinimize: Iter:   3  G: -1745.236659300587007  |grad|_K:  7.010e-07  alpha:  3.298e-01  linmin: -3.238e-05  t[s]:  23519.32
	FillingsUpdate:  mu: -0.173600000  nElectrons: 331.116390
	SubspaceRotationAdjust: set factor to 0.0144
ElecMinimize: Iter:   4  G: -1745.236665124740739  |grad|_K:  4.323e-07  alpha:  2.522e-01  linmin:  1.097e-05  t[s]:  23908.81
	FillingsUpdate:  mu: -0.173600000  nElectrons: 331.117806
	SubspaceRotationAdjust: set factor to 0.0192
ElecMinimize: Iter:   5  G: -1745.236669294512240  |grad|_K:  2.944e-07  alpha:  4.747e-01  linmin: -4.630e-05  t[s]:  24300.79
	FillingsUpdate:  mu: -0.173600000  nElectrons: 331.119079
	SubspaceRotationAdjust: set factor to 0.0198
ElecMinimize: Iter:   6  G: -1745.236671819273852  |grad|_K:  2.750e-07  alpha:  6.200e-01  linmin: -8.901e-06  t[s]:  24684.66
ElecMinimize: Converged (|Delta G|<5.035236e-06 for 2 iters).
Setting wave functions to eigenvectors of Hamiltonian

Electronic minimization # 5 changed total free energy by -3.902845e-05 at t[s]:  24702.02

---------------------- Fluid Minimization # 6 -----------------------
FluidMinimize: Iter:   0  G: -0.026664885947131  |grad|_K:  5.228e-05  alpha:  1.000e+00
FluidMinimize: Iter:   1  G: -0.026664892945117  |grad|_K:  5.227e-05  alpha:  1.323e-06  linmin: -1.275e-01  cgtest:  1.000e+00  t[s]:  24702.91
FluidMinimize: Encountered beta<0, resetting CG.
FluidMinimize: 	Predicted alpha/alphaT>3.000000, increasing alphaT to 3.969750e-06.
FluidMinimize: 	Predicted alpha/alphaT>3.000000, increasing alphaT to 1.190925e-05.
FluidMinimize: 	Predicted alpha/alphaT>3.000000, increasing alphaT to 3.572775e-05.
FluidMinimize: 	Predicted alpha/alphaT>3.000000, increasing alphaT to 1.071832e-04.
FluidMinimize: 	Predicted alpha/alphaT>3.000000, increasing alphaT to 3.215497e-04.
FluidMinimize: 	Predicted alpha/alphaT>3.000000, increasing alphaT to 9.646492e-04.
FluidMinimize: Iter:   2  G: -0.026687942629587  |grad|_K:  2.413e-05  alpha:  8.490e-03  linmin: -7.745e-03  cgtest:  8.696e-02  t[s]:  24704.66
FluidMinimize: Iter:   3  G: -0.026692540312700  |grad|_K:  2.053e-05  alpha:  7.853e-03  linmin:  4.338e-03  cgtest: -6.937e-02  t[s]:  24705.22
FluidMinimize: Iter:   4  G: -0.026696101974581  |grad|_K:  1.351e-05  alpha:  9.076e-03  linmin:  1.793e-03  cgtest:  2.637e-01  t[s]:  24705.77
FluidMinimize: Iter:   5  G: -0.026699238508685  |grad|_K:  2.356e-05  alpha:  1.758e-02  linmin: -7.370e-03  cgtest:  2.845e-02  t[s]:  24706.32
FluidMinimize: Iter:   6  G: -0.026705419100455  |grad|_K:  1.540e-05  alpha:  1.120e-02  linmin:  3.750e-04  cgtest: -2.602e-01  t[s]:  24706.86
FluidMinimize: Iter:   7  G: -0.026709291712459  |grad|_K:  1.373e-05  alpha:  1.694e-02  linmin:  5.526e-04  cgtest:  7.518e-02  t[s]:  24707.41
FluidMinimize: Iter:   8  G: -0.026712602795851  |grad|_K:  1.313e-05  alpha:  1.821e-02  linmin:  5.450e-04  cgtest:  4.669e-03  t[s]:  24707.94
FluidMinimize: Iter:   9  G: -0.026713527574444  |grad|_K:  9.106e-06  alpha:  5.397e-03  linmin: -2.635e-03  cgtest:  4.309e-02  t[s]:  24708.49
FluidMinimize: 	Predicted alpha/alphaT>3.000000, increasing alphaT to 1.619174e-02.
FluidMinimize: 	Predicted alpha/alphaT>3.000000, increasing alphaT to 4.857521e-02.
FluidMinimize: Iter:  10  G: -0.026718614952922  |grad|_K:  1.020e-05  alpha:  6.177e-02  linmin: -8.871e-04  cgtest:  2.920e-02  t[s]:  24709.49
FluidMinimize: Iter:  11  G: -0.026719773992019  |grad|_K:  1.461e-05  alpha:  1.203e-02  linmin:  3.961e-03  cgtest: -5.833e-02  t[s]:  24710.05
FluidMinimize: Iter:  12  G: -0.026722746994232  |grad|_K:  1.443e-05  alpha:  1.522e-02  linmin:  2.253e-03  cgtest:  1.615e-01  t[s]:  24710.60
FluidMinimize: Iter:  13  G: -0.026725546298935  |grad|_K:  1.520e-05  alpha:  1.408e-02  linmin:  2.417e-03  cgtest:  4.102e-02  t[s]:  24711.15
FluidMinimize: Iter:  14  G: -0.026727422900292  |grad|_K:  1.675e-05  alpha:  8.737e-03  linmin:  2.546e-04  cgtest:  2.122e-02  t[s]:  24711.70
FluidMinimize: Iter:  15  G: -0.026730770166980  |grad|_K:  9.562e-06  alpha:  1.232e-02  linmin: -1.009e-03  cgtest: -1.004e-01  t[s]:  24712.25
FluidMinimize: 	Predicted alpha/alphaT>3.000000, increasing alphaT to 3.695499e-02.
FluidMinimize: Iter:  16  G: -0.026736871175847  |grad|_K:  1.414e-05  alpha:  7.066e-02  linmin:  1.012e-02  cgtest: -7.862e-03  t[s]:  24713.03
FluidMinimize: Iter:  17  G: -0.026737771478652  |grad|_K:  1.294e-05  alpha:  6.411e-03  linmin:  1.921e-02  cgtest: -1.253e-01  t[s]:  24713.58
FluidMinimize: Iter:  18  G: -0.026740082650160  |grad|_K:  1.220e-05  alpha:  1.814e-02  linmin:  6.651e-04  cgtest:  4.370e-01  t[s]:  24714.12
FluidMinimize: Iter:  19  G: -0.026741587397424  |grad|_K:  1.327e-05  alpha:  1.021e-02  linmin: -8.197e-04  cgtest:  8.261e-03  t[s]:  24714.68
FluidMinimize: Iter:  20  G: -0.026743299943174  |grad|_K:  1.496e-05  alpha:  9.953e-03  linmin: -3.427e-04  cgtest: -2.192e-02  t[s]:  24715.21
FluidMinimize: Iter:  21  G: -0.026748737686358  |grad|_K:  8.285e-06  alpha:  2.459e-02  linmin: -4.021e-03  cgtest: -1.281e-01  t[s]:  24715.76
FluidMinimize: Iter:  22  G: -0.026750358941789  |grad|_K:  1.423e-05  alpha:  2.356e-02  linmin:  2.434e-04  cgtest: -2.285e-02  t[s]:  24716.30
FluidMinimize: Iter:  23  G: -0.026751709263234  |grad|_K:  1.143e-05  alpha:  7.339e-03  linmin:  4.019e-03  cgtest:  1.872e-03  t[s]:  24716.85
FluidMinimize: Iter:  24  G: -0.026754128834181  |grad|_K:  1.235e-05  alpha:  1.997e-02  linmin: -2.013e-04  cgtest:  4.575e-02  t[s]:  24717.39
FluidMinimize: Iter:  25  G: -0.026757088138362  |grad|_K:  1.115e-05  alpha:  2.001e-02  linmin:  4.870e-03  cgtest: -2.894e-02  t[s]:  24717.95
FluidMinimize: Iter:  26  G: -0.026757818481297  |grad|_K:  1.050e-05  alpha:  6.472e-03  linmin:  9.936e-04  cgtest:  3.804e-02  t[s]:  24718.49
FluidMinimize: 	Predicted alpha/alphaT>3.000000, increasing alphaT to 1.941738e-02.
FluidMinimize: Iter:  27  G: -0.026760719819207  |grad|_K:  1.182e-05  alpha:  2.750e-02  linmin: -1.253e-04  cgtest: -1.222e-01  t[s]:  24719.30
FluidMinimize: Iter:  28  G: -0.026762518133801  |grad|_K:  7.287e-06  alpha:  1.324e-02  linmin: -1.876e-04  cgtest:  3.397e-02  t[s]:  24719.85
FluidMinimize: Iter:  29  G: -0.026764430457029  |grad|_K:  1.910e-05  alpha:  3.741e-02  linmin:  9.697e-04  cgtest:  7.317e-03  t[s]:  24720.41
FluidMinimize: Iter:  30  G: -0.026767477642080  |grad|_K:  1.157e-05  alpha:  1.170e-02  linmin:  1.583e-02  cgtest: -3.694e-01  t[s]:  24720.95
FluidMinimize: Iter:  31  G: -0.026768365225342  |grad|_K:  8.942e-06  alpha:  9.357e-03  linmin:  3.679e-04  cgtest:  4.555e-01  t[s]:  24721.50
FluidMinimize: Iter:  32  G: -0.026770090835925  |grad|_K:  1.523e-05  alpha:  2.215e-02  linmin: -1.636e-03  cgtest: -2.126e-02  t[s]:  24722.05
FluidMinimize: Iter:  33  G: -0.026771718940844  |grad|_K:  8.203e-06  alpha:  6.358e-03  linmin: -9.208e-03  cgtest:  1.489e-01  t[s]:  24722.61
FluidMinimize: 	Predicted alpha/alphaT>3.000000, increasing alphaT to 1.907260e-02.
FluidMinimize: Iter:  34  G: -0.026773754741560  |grad|_K:  9.457e-06  alpha:  2.858e-02  linmin: -5.094e-03  cgtest: -6.111e-02  t[s]:  24723.39
FluidMinimize: Iter:  35  G: -0.026775217347066  |grad|_K:  8.435e-06  alpha:  1.592e-02  linmin: -2.247e-04  cgtest: -4.619e-02  t[s]:  24723.94
FluidMinimize: Iter:  36  G: -0.026778573069412  |grad|_K:  1.240e-05  alpha:  4.749e-02  linmin: -4.149e-03  cgtest:  1.085e-01  t[s]:  24724.48
FluidMinimize: Iter:  37  G: -0.026779421931177  |grad|_K:  8.525e-06  alpha:  5.130e-03  linmin: -5.190e-03  cgtest:  5.547e-02  t[s]:  24725.03
FluidMinimize: 	Predicted alpha/alphaT>3.000000, increasing alphaT to 1.538942e-02.
FluidMinimize: Iter:  38  G: -0.026781627135427  |grad|_K:  1.039e-05  alpha:  2.829e-02  linmin: -1.238e-02  cgtest: -1.101e-02  t[s]:  24725.80
FluidMinimize: Iter:  39  G: -0.026783154230749  |grad|_K:  8.256e-06  alpha:  1.285e-02  linmin: -2.692e-03  cgtest: -6.691e-02  t[s]:  24726.35
FluidMinimize: Iter:  40  G: -0.026784215889286  |grad|_K:  1.334e-05  alpha:  1.552e-02  linmin: -1.282e-03  cgtest:  1.506e-02  t[s]:  24726.90
FluidMinimize: Iter:  41  G: -0.026786425831401  |grad|_K:  8.429e-06  alpha:  1.254e-02  linmin:  1.145e-03  cgtest: -2.630e-02  t[s]:  24727.49
FluidMinimize: Iter:  42  G: -0.026787924013315  |grad|_K:  1.132e-05  alpha:  2.161e-02  linmin: -5.410e-03  cgtest:  3.683e-02  t[s]:  24728.05
FluidMinimize: Iter:  43  G: -0.026789160835080  |grad|_K:  9.395e-06  alpha:  9.184e-03  linmin: -2.077e-03  cgtest: -3.541e-02  t[s]:  24728.61
FluidMinimize: Iter:  44  G: -0.026789979526443  |grad|_K:  7.940e-06  alpha:  9.302e-03  linmin: -2.617e-04  cgtest:  9.177e-03  t[s]:  24729.15
FluidMinimize: 	Predicted alpha/alphaT>3.000000, increasing alphaT to 2.790607e-02.
FluidMinimize: Iter:  45  G: -0.026792423281138  |grad|_K:  9.223e-06  alpha:  4.065e-02  linmin:  4.477e-03  cgtest:  5.735e-02  t[s]:  24729.96
FluidMinimize: Iter:  46  G: -0.026792998374360  |grad|_K:  9.885e-06  alpha:  8.108e-03  linmin:  8.518e-03  cgtest: -4.404e-02  t[s]:  24730.51
FluidMinimize: 	Predicted alpha/alphaT>3.000000, increasing alphaT to 2.432263e-02.
FluidMinimize: Iter:  47  G: -0.026795254228303  |grad|_K:  1.193e-05  alpha:  2.599e-02  linmin:  2.671e-04  cgtest:  6.020e-02  t[s]:  24731.31
FluidMinimize: Iter:  48  G: -0.026796827983574  |grad|_K:  7.327e-06  alpha:  1.158e-02  linmin:  4.767e-04  cgtest: -8.768e-02  t[s]:  24731.87
FluidMinimize: Iter:  49  G: -0.026797654935379  |grad|_K:  1.260e-05  alpha:  1.616e-02  linmin:  1.875e-03  cgtest:  5.787e-03  t[s]:  24732.42
FluidMinimize: Iter:  50  G: -0.026799645089186  |grad|_K:  6.010e-06  alpha:  1.343e-02  linmin: -2.030e-03  cgtest:  2.690e-01  t[s]:  24732.97
FluidMinimize: 	Predicted alpha/alphaT>3.000000, increasing alphaT to 4.030401e-02.
FluidMinimize: Iter:  51  G: -0.026801651966477  |grad|_K:  1.312e-05  alpha:  5.621e-02  linmin: -5.026e-03  cgtest:  2.245e-03  t[s]:  24733.79
FluidMinimize: Iter:  52  G: -0.026802678457644  |grad|_K:  7.875e-06  alpha:  4.824e-03  linmin: -2.614e-02  cgtest:  3.293e-01  t[s]:  24734.34
FluidMinimize: 	Predicted alpha/alphaT>3.000000, increasing alphaT to 1.447156e-02.
FluidMinimize: Iter:  53  G: -0.026804005562244  |grad|_K:  7.286e-06  alpha:  2.000e-02  linmin: -3.114e-04  cgtest: -1.633e-01  t[s]:  24735.15
FluidMinimize: Iter:  54  G: -0.026804803874454  |grad|_K:  6.404e-06  alpha:  1.533e-02  linmin:  5.699e-04  cgtest:  1.078e-01  t[s]:  24735.71
FluidMinimize: Iter:  55  G: -0.026806528708630  |grad|_K:  9.044e-06  alpha:  4.372e-02  linmin:  1.694e-04  cgtest:  2.568e-02  t[s]:  24736.27
FluidMinimize: Iter:  56  G: -0.026807548782764  |grad|_K:  1.193e-05  alpha:  1.414e-02  linmin:  7.703e-03  cgtest: -7.439e-02  t[s]:  24736.83
FluidMinimize: Iter:  57  G: -0.026809104729318  |grad|_K:  1.436e-05  alpha:  1.208e-02  linmin:  1.011e-03  cgtest:  1.305e-01  t[s]:  24737.39
FluidMinimize: Iter:  58  G: -0.026811839587723  |grad|_K:  6.890e-06  alpha:  1.388e-02  linmin:  3.720e-03  cgtest: -6.049e-02  t[s]:  24737.94
FluidMinimize: Iter:  59  G: -0.026812584038745  |grad|_K:  1.263e-05  alpha:  1.663e-02  linmin: -1.894e-03  cgtest:  1.566e-02  t[s]:  24738.49
FluidMinimize: Iter:  60  G: -0.026814604912176  |grad|_K:  6.887e-06  alpha:  1.287e-02  linmin:  1.713e-04  cgtest: -3.892e-01  t[s]:  24739.03
FluidMinimize: Iter:  61  G: -0.026816290280421  |grad|_K:  1.180e-05  alpha:  3.644e-02  linmin: -1.480e-03  cgtest:  3.240e-02  t[s]:  24739.59
FluidMinimize: Iter:  62  G: -0.026817647619930  |grad|_K:  1.078e-05  alpha:  8.554e-03  linmin: -1.024e-02  cgtest:  1.608e-01  t[s]:  24740.15
FluidMinimize: Iter:  63  G: -0.026818900503537  |grad|_K:  8.421e-06  alpha:  9.928e-03  linmin: -2.222e-03  cgtest: -1.932e-01  t[s]:  24740.70
FluidMinimize: Iter:  64  G: -0.026819847961869  |grad|_K:  9.061e-06  alpha:  1.361e-02  linmin:  3.638e-03  cgtest:  3.102e-02  t[s]:  24741.26
FluidMinimize: Iter:  65  G: -0.026820432175398  |grad|_K:  7.163e-06  alpha:  7.769e-03  linmin:  1.041e-05  cgtest:  1.779e-01  t[s]:  24741.82
FluidMinimize: 	Predicted alpha/alphaT>3.000000, increasing alphaT to 2.330813e-02.
FluidMinimize: Iter:  66  G: -0.026822609475686  |grad|_K:  1.610e-05  alpha:  4.579e-02  linmin:  6.853e-03  cgtest: -5.899e-02  t[s]:  24742.64
FluidMinimize: Iter:  67  G: -0.026823771700889  |grad|_K:  7.446e-06  alpha:  5.735e-03  linmin:  7.171e-03  cgtest:  1.908e-01  t[s]:  24743.19
FluidMinimize: 	Predicted alpha/alphaT>3.000000, increasing alphaT to 1.720451e-02.
FluidMinimize: Iter:  68  G: -0.026824646689285  |grad|_K:  7.712e-06  alpha:  1.715e-02  linmin:  1.876e-04  cgtest:  3.013e-02  t[s]:  24743.98
FluidMinimize: Iter:  69  G: -0.026825576056997  |grad|_K:  1.101e-05  alpha:  1.620e-02  linmin: -3.382e-04  cgtest: -3.755e-02  t[s]:  24744.54
FluidMinimize: Iter:  70  G: -0.026826676442366  |grad|_K:  1.219e-05  alpha:  9.112e-03  linmin: -9.682e-04  cgtest:  2.958e-03  t[s]:  24745.08
FluidMinimize: Iter:  71  G: -0.026830396912332  |grad|_K:  6.569e-06  alpha:  2.462e-02  linmin: -1.079e-02  cgtest:  1.885e-01  t[s]:  24745.63
FluidMinimize: Iter:  72  G: -0.026832196142504  |grad|_K:  1.839e-05  alpha:  4.107e-02  linmin: -6.947e-04  cgtest: -2.810e-02  t[s]:  24746.18
FluidMinimize: Iter:  73  G: -0.026834254586401  |grad|_K:  7.761e-06  alpha:  4.739e-03  linmin: -2.969e-02  cgtest:  8.362e-01  t[s]:  24746.74
FluidMinimize: Encountered beta<0, resetting CG.
FluidMinimize: Iter:  74  G: -0.026834523493666  |grad|_K:  5.827e-06  alpha:  4.613e-03  linmin:  2.399e-04  cgtest: -4.261e-03  t[s]:  24747.30
FluidMinimize: 	Predicted alpha/alphaT>3.000000, increasing alphaT to 1.383918e-02.
FluidMinimize: Iter:  75  G: -0.026835591360390  |grad|_K:  7.526e-06  alpha:  3.253e-02  linmin: -3.679e-04  cgtest:  4.675e-02  t[s]:  24748.09
FluidMinimize: Iter:  76  G: -0.026836332873540  |grad|_K:  5.882e-06  alpha:  1.375e-02  linmin:  1.189e-03  cgtest: -7.431e-02  t[s]:  24748.64
FluidMinimize: Iter:  77  G: -0.026837423031132  |grad|_K:  1.590e-05  alpha:  3.384e-02  linmin:  4.989e-03  cgtest: -1.689e-03  t[s]:  24749.21
FluidMinimize: Iter:  78  G: -0.026839399153041  |grad|_K:  8.800e-06  alpha:  7.884e-03  linmin: -8.371e-03  cgtest:  4.610e-01  t[s]:  24749.78
FluidMinimize: Iter:  79  G: -0.026840264996226  |grad|_K:  1.072e-05  alpha:  1.130e-02  linmin: -4.406e-03  cgtest:  9.996e-03  t[s]:  24750.34
FluidMinimize: Iter:  80  G: -0.026841094381379  |grad|_K:  6.899e-06  alpha:  7.226e-03  linmin: -4.165e-05  cgtest: -7.755e-02  t[s]:  24750.89
FluidMinimize: Iter:  81  G: -0.026841811649319  |grad|_K:  6.517e-06  alpha:  1.557e-02  linmin:  5.108e-05  cgtest:  4.495e-02  t[s]:  24751.45
FluidMinimize: Iter:  82  G: -0.026842758718244  |grad|_K:  6.387e-06  alpha:  2.308e-02  linmin:  2.141e-04  cgtest:  3.359e-02  t[s]:  24751.99
FluidMinimize: Iter:  83  G: -0.026843060094035  |grad|_K:  7.613e-06  alpha:  7.495e-03  linmin: -1.437e-03  cgtest:  2.064e-02  t[s]:  24752.54
FluidMinimize: 	Predicted alpha/alphaT>3.000000, increasing alphaT to 2.248513e-02.
FluidMinimize: Iter:  84  G: -0.026845317239151  |grad|_K:  6.123e-06  alpha:  3.918e-02  linmin: -3.835e-03  cgtest:  6.914e-02  t[s]:  24753.33
FluidMinimize: Iter:  85  G: -0.026846687561346  |grad|_K:  1.616e-05  alpha:  3.705e-02  linmin: -3.192e-03  cgtest: -6.127e-03  t[s]:  24753.88
FluidMinimize: Iter:  86  G: -0.026848428649948  |grad|_K:  6.824e-06  alpha:  5.097e-03  linmin: -6.649e-02  cgtest:  6.983e-01  t[s]:  24754.43
FluidMinimize: Encountered beta<0, resetting CG.
FluidMinimize: Iter:  87  G: -0.026848756746733  |grad|_K:  7.147e-06  alpha:  7.315e-03  linmin:  1.470e-03  cgtest: -1.203e-02  t[s]:  24755.00
FluidMinimize: Iter:  88  G: -0.026849431400653  |grad|_K:  7.139e-06  alpha:  1.381e-02  linmin: -2.325e-04  cgtest:  7.168e-02  t[s]:  24755.56
FluidMinimize: Iter:  89  G: -0.026850066944892  |grad|_K:  4.102e-06  alpha:  1.287e-02  linmin: -6.915e-04  cgtest: -3.264e-02  t[s]:  24756.12
FluidMinimize: Iter:  90  G: -0.026850639970589  |grad|_K:  1.022e-05  alpha:  3.597e-02  linmin:  7.746e-03  cgtest: -2.125e-02  t[s]:  24756.66
FluidMinimize: Iter:  91  G: -0.026851207101773  |grad|_K:  4.744e-06  alpha:  6.319e-03  linmin:  8.877e-03  cgtest:  2.104e-01  t[s]:  24757.22
FluidMinimize: Converged (|Delta G|<6.246224e-07 for 2 iters).

Fluid minimization # 6 changed total free energy by -1.863212e-04 at t[s]:  24757.53

-------------------- Electronic Minimization # 6 ---------------------
	FillingsUpdate:  mu: -0.173600000  nElectrons: 330.815043
ElecMinimize: Iter:   0  G: -1745.216114794917303  |grad|_K:  5.249e-05  alpha:  1.000e+00
	FillingsUpdate:  mu: -0.173600000  nElectrons: 331.117114
	SubspaceRotationAdjust: set factor to 0.0219
ElecMinimize: Iter:   1  G: -1745.236312137667937  |grad|_K:  5.023e-06  alpha:  1.603e-01  linmin:  1.910e-02  t[s]:  25311.21
	FillingsUpdate:  mu: -0.173600000  nElectrons: 331.124448
	SubspaceRotationAdjust: set factor to 0.028
ElecMinimize: Iter:   2  G: -1745.236712814460134  |grad|_K:  2.021e-06  alpha:  3.436e-01  linmin:  5.912e-04  t[s]:  25704.18
	FillingsUpdate:  mu: -0.173600000  nElectrons: 331.138664
	SubspaceRotationAdjust: set factor to 0.0189
ElecMinimize: Iter:   3  G: -1745.236781658205018  |grad|_K:  1.593e-06  alpha:  3.591e-01  linmin:  1.518e-04  t[s]:  26085.63
	FillingsUpdate:  mu: -0.173600000  nElectrons: 331.131042
	SubspaceRotationAdjust: set factor to 0.0142
ElecMinimize: Iter:   4  G: -1745.236816915813051  |grad|_K:  1.111e-06  alpha:  2.957e-01  linmin:  3.542e-05  t[s]:  26468.60
	FillingsUpdate:  mu: -0.173600000  nElectrons: 331.135022
	SubspaceRotationAdjust: set factor to 0.0176
ElecMinimize: Iter:   5  G: -1745.236846634461926  |grad|_K:  8.519e-07  alpha:  5.123e-01  linmin: -5.043e-05  t[s]:  26852.57
	FillingsUpdate:  mu: -0.173600000  nElectrons: 331.138247
	SubspaceRotationAdjust: set factor to 0.019
[...]
FluidMinimize: Iter:   5  G: -0.033943193665123  |grad|_K:  5.368e-06  alpha:  2.314e-02  linmin: -7.967e-04  cgtest: -2.347e-01  t[s]:  38277.37
FluidMinimize: Iter:   6  G: -0.033943614513944  |grad|_K:  7.436e-06  alpha:  1.504e-02  linmin:  2.101e-05  cgtest: -6.221e-03  t[s]:  38277.94
FluidMinimize: Iter:   7  G: -0.033944096049606  |grad|_K:  7.928e-06  alpha:  8.923e-03  linmin: -3.218e-04  cgtest:  2.060e-02  t[s]:  38278.49
FluidMinimize: Converged (|Delta G|<8.589204e-07 for 2 iters).

Fluid minimization # 9 changed total free energy by -1.551669e-05 at t[s]:  38278.80

-------------------- Electronic Minimization # 9 ---------------------
	FillingsUpdate:  mu: -0.173600000  nElectrons: 331.159987
ElecMinimize: Iter:   0  G: -1745.237051124692243  |grad|_K:  8.788e-07  alpha:  1.000e+00
	FillingsUpdate:  mu: -0.173600000  nElectrons: 331.164199
	SubspaceRotationAdjust: set factor to 0.0173
ElecMinimize: Iter:   1  G: -1745.237063602790386  |grad|_K:  5.769e-07  alpha:  3.440e-01  linmin:  1.508e-04  t[s]:  38827.12
	FillingsUpdate:  mu: -0.173600000  nElectrons: 331.161120
	SubspaceRotationAdjust: set factor to 0.0132
ElecMinimize: Iter:   2  G: -1745.237067873203159  |grad|_K:  3.444e-07  alpha:  2.732e-01  linmin: -1.221e-05  t[s]:  39205.91
	FillingsUpdate:  mu: -0.173600000  nElectrons: 331.161874
	SubspaceRotationAdjust: set factor to 0.0186
ElecMinimize: Iter:   3  G: -1745.237070637132547  |grad|_K:  2.571e-07  alpha:  4.961e-01  linmin:  8.290e-06  t[s]:  39591.59
	FillingsUpdate:  mu: -0.173600000  nElectrons: 331.163171
	SubspaceRotationAdjust: set factor to 0.0192
ElecMinimize: Iter:   4  G: -1745.237072336506117  |grad|_K:  2.487e-07  alpha:  5.474e-01  linmin:  4.252e-06  t[s]:  39980.07
	FillingsUpdate:  mu: -0.173600000  nElectrons: 331.161930
	SubspaceRotationAdjust: set factor to 0.0166
ElecMinimize: Iter:   5  G: -1745.237073910925574  |grad|_K:  2.331e-07  alpha:  5.419e-01  linmin:  3.561e-05  t[s]:  40369.77
	FillingsUpdate:  mu: -0.173600000  nElectrons: 331.162903
	SubspaceRotationAdjust: set factor to 0.0164
ElecMinimize: Iter:   6  G: -1745.237075120803411  |grad|_K:  1.780e-07  alpha:  4.740e-01  linmin: -2.909e-05  t[s]:  40760.32
	FillingsUpdate:  mu: -0.173600000  nElectrons: 331.163063
	SubspaceRotationAdjust: set factor to 0.0197
ElecMinimize: Iter:   7  G: -1745.237075867120893  |grad|_K:  1.192e-07  alpha:  5.010e-01  linmin:  1.535e-05  t[s]:  41149.10
	FillingsUpdate:  mu: -0.173600000  nElectrons: 331.162547
	SubspaceRotationAdjust: set factor to 0.0178
ElecMinimize: Iter:   8  G: -1745.237076163244865  |grad|_K:  9.092e-08  alpha:  4.433e-01  linmin:  1.492e-05  t[s]:  41537.37
ElecMinimize: Converged (|Delta G|<8.589204e-07 for 2 iters).
Setting wave functions to eigenvectors of Hamiltonian

Electronic minimization # 9 changed total free energy by -1.110068e-05 at t[s]:  41553.88

---------------------- Fluid Minimization # 10 -----------------------
FluidMinimize: Iter:   0  G: -0.035411144418133  |grad|_K:  3.019e-05  alpha:  1.000e+00
FluidMinimize: Iter:   1  G: -0.035411278032485  |grad|_K:  2.981e-05  alpha:  7.622e-05  linmin: -1.547e-01  cgtest:  1.000e+00  t[s]:  41554.74
FluidMinimize: Encountered beta<0, resetting CG.
FluidMinimize: 	Predicted alpha/alphaT>3.000000, increasing alphaT to 2.286725e-04.
FluidMinimize: 	Predicted alpha/alphaT>3.000000, increasing alphaT to 6.860176e-04.
FluidMinimize: 	Predicted alpha/alphaT>3.000000, increasing alphaT to 2.058053e-03.
FluidMinimize: Iter:   2  G: -0.035416400826290  |grad|_K:  1.017e-05  alpha:  5.968e-03  linmin:  6.558e-04  cgtest: -7.825e-03  t[s]:  41556.03
FluidMinimize: Iter:   3  G: -0.035417115192296  |grad|_K:  9.840e-06  alpha:  7.156e-03  linmin:  2.119e-04  cgtest: -2.931e-03  t[s]:  41556.59
FluidMinimize: Iter:   4  G: -0.035417687193846  |grad|_K:  5.599e-06  alpha:  6.089e-03  linmin:  1.125e-03  cgtest: -4.300e-03  t[s]:  41557.14
FluidMinimize: 	Predicted alpha/alphaT>3.000000, increasing alphaT to 1.826564e-02.
FluidMinimize: 	Predicted alpha/alphaT>3.000000, increasing alphaT to 5.479692e-02.
FluidMinimize: Iter:   5  G: -0.035419820906542  |grad|_K:  5.314e-06  alpha:  7.103e-02  linmin:  4.382e-04  cgtest:  8.200e-02  t[s]:  41558.19
FluidMinimize: Iter:   6  G: -0.035420597024446  |grad|_K:  8.804e-06  alpha:  2.924e-02  linmin:  2.599e-03  cgtest: -1.273e-02  t[s]:  41558.75
FluidMinimize: Iter:   7  G: -0.035420965404385  |grad|_K:  5.216e-06  alpha:  4.650e-03  linmin: -1.053e-02  cgtest:  1.560e-01  t[s]:  41559.31
FluidMinimize: Iter:   8  G: -0.035421167370113  |grad|_K:  3.956e-06  alpha:  7.308e-03  linmin: -6.131e-05  cgtest: -8.983e-02  t[s]:  41559.87
FluidMinimize: 	Predicted alpha/alphaT>3.000000, increasing alphaT to 2.192502e-02.
FluidMinimize: Iter:   9  G: -0.035421788169393  |grad|_K:  8.577e-06  alpha:  4.128e-02  linmin:  1.242e-03  cgtest:  8.280e-02  t[s]:  41560.68
FluidMinimize: Iter:  10  G: -0.035422109202127  |grad|_K:  4.405e-06  alpha:  4.894e-03  linmin:  5.698e-03  cgtest: -7.064e-02  t[s]:  41561.24
FluidMinimize: Iter:  11  G: -0.035422275356255  |grad|_K:  4.852e-06  alpha:  9.478e-03  linmin:  5.663e-05  cgtest:  8.064e-02  t[s]:  41561.81
FluidMinimize: 	Predicted alpha/alphaT>3.000000, increasing alphaT to 2.843438e-02.
FluidMinimize: Iter:  12  G: -0.035423042788305  |grad|_K:  7.250e-06  alpha:  3.360e-02  linmin: -1.204e-03  cgtest: -1.645e-01  t[s]:  41562.60
FluidMinimize: Iter:  13  G: -0.035423289631998  |grad|_K:  4.990e-06  alpha:  4.569e-03  linmin: -4.091e-03  cgtest:  3.215e-02  t[s]:  41563.17
FluidMinimize: 	Predicted alpha/alphaT>3.000000, increasing alphaT to 1.370758e-02.
FluidMinimize: Iter:  14  G: -0.035423798294191  |grad|_K:  4.218e-06  alpha:  2.033e-02  linmin:  8.549e-04  cgtest: -1.035e-01  t[s]:  41563.99
FluidMinimize: Iter:  15  G: -0.035424143271229  |grad|_K:  6.652e-06  alpha:  2.019e-02  linmin:  4.096e-04  cgtest:  3.075e-02  t[s]:  41564.55
FluidMinimize: Iter:  16  G: -0.035424385510909  |grad|_K:  4.442e-06  alpha:  5.803e-03  linmin:  1.899e-03  cgtest: -2.583e-02  t[s]:  41565.10
FluidMinimize: Iter:  17  G: -0.035424529070007  |grad|_K:  3.548e-06  alpha:  7.668e-03  linmin:  3.452e-04  cgtest:  3.270e-02  t[s]:  41565.65
FluidMinimize: 	Predicted alpha/alphaT>3.000000, increasing alphaT to 2.300527e-02.
FluidMinimize: Iter:  18  G: -0.035425148311749  |grad|_K:  6.679e-06  alpha:  5.059e-02  linmin: -1.664e-03  cgtest: -1.195e-02  t[s]:  41566.45
FluidMinimize: Iter:  19  G: -0.035425338787643  |grad|_K:  3.979e-06  alpha:  4.126e-03  linmin: -4.749e-03  cgtest:  4.894e-02  t[s]:  41567.01
FluidMinimize: 	Predicted alpha/alphaT>3.000000, increasing alphaT to 1.237729e-02.
FluidMinimize: Iter:  20  G: -0.035425586001939  |grad|_K:  3.370e-06  alpha:  1.544e-02  linmin: -5.061e-05  cgtest: -8.908e-02  t[s]:  41567.81
FluidMinimize: Iter:  21  G: -0.035425736318225  |grad|_K:  5.037e-06  alpha:  1.366e-02  linmin:  2.701e-04  cgtest:  2.397e-02  t[s]:  41568.40
FluidMinimize: Iter:  22  G: -0.035425956401101  |grad|_K:  5.157e-06  alpha:  8.999e-03  linmin:  5.534e-07  cgtest:  1.824e-02  t[s]:  41568.95
FluidMinimize: Iter:  23  G: -0.035426192698646  |grad|_K:  3.561e-06  alpha:  9.181e-03  linmin: -5.428e-04  cgtest: -1.926e-02  t[s]:  41569.52
FluidMinimize: Iter:  24  G: -0.035426510793382  |grad|_K:  7.721e-06  alpha:  2.557e-02  linmin: -1.607e-03  cgtest: -3.247e-03  t[s]:  41570.08
FluidMinimize: Iter:  25  G: -0.035426919861844  |grad|_K:  4.395e-06  alpha:  6.871e-03  linmin: -1.569e-03  cgtest: -4.907e-02  t[s]:  41570.64
FluidMinimize: Iter:  26  G: -0.035427142655240  |grad|_K:  3.851e-06  alpha:  1.179e-02  linmin:  8.161e-04  cgtest: -1.395e-02  t[s]:  41571.19
FluidMinimize: Iter:  27  G: -0.035427265881837  |grad|_K:  4.168e-06  alpha:  8.630e-03  linmin:  5.735e-05  cgtest:  2.622e-02  t[s]:  41571.76
FluidMinimize: Iter:  28  G: -0.035427436215748  |grad|_K:  5.031e-06  alpha:  1.014e-02  linmin: -2.748e-04  cgtest: -3.508e-03  t[s]:  41572.32
FluidMinimize: Iter:  29  G: -0.035427899514628  |grad|_K:  4.769e-06  alpha:  1.917e-02  linmin:  3.280e-03  cgtest: -1.820e-02  t[s]:  41572.88
FluidMinimize: Iter:  30  G: -0.035428033473032  |grad|_K:  4.775e-06  alpha:  6.348e-03  linmin:  5.297e-04  cgtest:  3.718e-02  t[s]:  41573.44
FluidMinimize: Iter:  31  G: -0.035428427307524  |grad|_K:  5.481e-06  alpha:  1.783e-02  linmin: -1.077e-03  cgtest: -5.035e-02  t[s]:  41574.01
FluidMinimize: Iter:  32  G: -0.035428678130992  |grad|_K:  4.861e-06  alpha:  8.655e-03  linmin:  9.230e-04  cgtest: -5.903e-02  t[s]:  41574.57
FluidMinimize: Iter:  33  G: -0.035428843074286  |grad|_K:  4.009e-06  alpha:  7.279e-03  linmin:  9.255e-05  cgtest:  1.512e-02  t[s]:  41575.15
FluidMinimize: Iter:  34  G: -0.035429009755488  |grad|_K:  3.622e-06  alpha:  1.073e-02  linmin:  1.633e-04  cgtest: -4.344e-03  t[s]:  41575.71
FluidMinimize: Iter:  35  G: -0.035429269376752  |grad|_K:  7.136e-06  alpha:  2.062e-02  linmin:  7.578e-04  cgtest:  4.574e-03  t[s]:  41576.27
FluidMinimize: Iter:  36  G: -0.035429622723998  |grad|_K:  3.897e-06  alpha:  7.539e-03  linmin:  1.696e-03  cgtest:  1.751e-02  t[s]:  41576.82
FluidMinimize: Iter:  37  G: -0.035429838685785  |grad|_K:  5.126e-06  alpha:  1.502e-02  linmin: -2.428e-04  cgtest:  2.192e-02  t[s]:  41577.39
FluidMinimize: Iter:  38  G: -0.035430069659912  |grad|_K:  5.570e-06  alpha:  9.109e-03  linmin:  8.491e-05  cgtest: -3.513e-02  t[s]:  41577.94
FluidMinimize: Iter:  39  G: -0.035430373751202  |grad|_K:  4.705e-06  alpha:  1.017e-02  linmin:  7.880e-04  cgtest: -9.756e-03  t[s]:  41578.51
FluidMinimize: Iter:  40  G: -0.035430600528203  |grad|_K:  3.049e-06  alpha:  1.072e-02  linmin:  8.559e-05  cgtest:  7.599e-02  t[s]:  41579.06
FluidMinimize: Iter:  41  G: -0.035430659603077  |grad|_K:  3.259e-06  alpha:  6.561e-03  linmin: -2.082e-05  cgtest:  3.651e-03  t[s]:  41579.63
FluidMinimize: 	Predicted alpha/alphaT>3.000000, increasing alphaT to 1.968154e-02.
FluidMinimize: Iter:  42  G: -0.035430940913447  |grad|_K:  4.995e-06  alpha:  2.736e-02  linmin: -3.487e-05  cgtest:  5.112e-03  t[s]:  41580.44
FluidMinimize: Iter:  43  G: -0.035431209540359  |grad|_K:  5.153e-06  alpha:  1.099e-02  linmin: -5.626e-04  cgtest:  2.025e-02  t[s]:  41581.00
FluidMinimize: Iter:  44  G: -0.035431428884754  |grad|_K:  5.356e-06  alpha:  8.489e-03  linmin: -1.434e-04  cgtest: -1.152e-02  t[s]:  41581.56
FluidMinimize: Iter:  45  G: -0.035431709175042  |grad|_K:  3.872e-06  alpha:  1.007e-02  linmin: -2.859e-04  cgtest:  1.431e-03  t[s]:  41582.12
FluidMinimize: Iter:  46  G: -0.035431932315680  |grad|_K:  4.759e-06  alpha:  1.525e-02  linmin: -1.152e-03  cgtest: -6.442e-04  t[s]:  41582.68
FluidMinimize: Iter:  47  G: -0.035432047762249  |grad|_K:  2.500e-06  alpha:  5.097e-03  linmin: -1.685e-03  cgtest: -4.625e-03  t[s]:  41583.24
FluidMinimize: 	Predicted alpha/alphaT>3.000000, increasing alphaT to 1.529146e-02.
FluidMinimize: Iter:  48  G: -0.035432170166505  |grad|_K:  4.344e-06  alpha:  1.992e-02  linmin:  1.515e-04  cgtest: -5.824e-03  t[s]:  41584.03
FluidMinimize: Converged (|Delta G|<1.551669e-07 for 2 iters).

Fluid minimization # 10 changed total free energy by -2.102575e-05 at t[s]:  41584.35

-------------------- Electronic Minimization # 10 ---------------------
	FillingsUpdate:  mu: -0.173600000  nElectrons: 331.259336
ElecMinimize: Iter:   0  G: -1745.235565253974983  |grad|_K:  1.344e-05  alpha:  1.000e+00
	FillingsUpdate:  mu: -0.173600000  nElectrons: 331.177936
	SubspaceRotationAdjust: set factor to 0.0393
ElecMinimize: Iter:   1  G: -1745.237061953405373  |grad|_K:  1.463e-06  alpha:  1.771e-01  linmin:  3.359e-03  t[s]:  42135.13
	FillingsUpdate:  mu: -0.173600000  nElectrons: 331.173265
	SubspaceRotationAdjust: set factor to 0.0541
ElecMinimize: Iter:   2  G: -1745.237097510220337  |grad|_K:  5.810e-07  alpha:  3.544e-01  linmin: -2.593e-04  t[s]:  42523.72
	FillingsUpdate:  mu: -0.173600000  nElectrons: 331.170297
	SubspaceRotationAdjust: set factor to 0.044
ElecMinimize: Iter:   3  G: -1745.237103386098397  |grad|_K:  4.662e-07  alpha:  3.703e-01  linmin: -3.404e-05  t[s]:  42908.68
	FillingsUpdate:  mu: -0.173600000  nElectrons: 331.172245
	SubspaceRotationAdjust: set factor to 0.0281
ElecMinimize: Iter:   4  G: -1745.237104642691293  |grad|_K:  3.554e-07  alpha:  1.231e-01  linmin:  2.738e-05  t[s]:  43297.01
	FillingsUpdate:  mu: -0.173600000  nElectrons: 331.171524
	SubspaceRotationAdjust: set factor to 0.046
ElecMinimize: Iter:   5  G: -1745.237106615494213  |grad|_K:  2.073e-07  alpha:  3.335e-01  linmin:  4.540e-04  t[s]:  43684.79
	FillingsUpdate:  mu: -0.173600000  nElectrons: 331.170210
	SubspaceRotationAdjust: set factor to 0.029
ElecMinimize: Iter:   6  G: -1745.237107379357894  |grad|_K:  2.660e-07  alpha:  3.796e-01  linmin:  1.411e-05  t[s]:  44074.79
	FillingsUpdate:  mu: -0.173600000  nElectrons: 331.171293
	SubspaceRotationAdjust: set factor to 0.0212
ElecMinimize: Iter:   7  G: -1745.237107891477535  |grad|_K:  1.400e-07  alpha:  1.542e-01  linmin: -1.173e-05  t[s]:  44465.69
ElecMinimize: 	Predicted alpha/alphaT>3.000000, increasing alphaT to 4.624552e-01.
	FillingsUpdate:  mu: -0.173600000  nElectrons: 331.171438
	SubspaceRotationAdjust: set factor to 0.0284
ElecMinimize: Iter:   8  G: -1745.237108390398816  |grad|_K:  1.187e-07  alpha:  5.415e-01  linmin: -2.245e-05  t[s]:  44944.53
	FillingsUpdate:  mu: -0.173600000  nElectrons: 331.170836
	SubspaceRotationAdjust: set factor to 0.0233
ElecMinimize: Iter:   9  G: -1745.237108669696227  |grad|_K:  1.206e-07  alpha:  4.217e-01  linmin:  4.205e-05  t[s]:  45336.04
	FillingsUpdate:  mu: -0.173600000  nElectrons: 331.171551
	SubspaceRotationAdjust: set factor to 0.0186
ElecMinimize: Iter:  10  G: -1745.237108874950536  |grad|_K:  9.183e-08  alpha:  3.007e-01  linmin: -2.139e-05  t[s]:  45719.96
	FillingsUpdate:  mu: -0.173600000  nElectrons: 331.171555
	SubspaceRotationAdjust: set factor to 0.0228
ElecMinimize: Iter:  11  G: -1745.237109099711915  |grad|_K:  7.744e-08  alpha:  5.717e-01  linmin:  2.245e-04  t[s]:  46108.89
	FillingsUpdate:  mu: -0.173600000  nElectrons: 331.171326
	SubspaceRotationAdjust: set factor to 0.0224
ElecMinimize: Iter:  12  G: -1745.237109244945486  |grad|_K:  6.710e-08  alpha:  5.202e-01  linmin: -8.215e-06  t[s]:  46500.72
	FillingsUpdate:  mu: -0.173600000  nElectrons: 331.171710
	SubspaceRotationAdjust: set factor to 0.0173
ElecMinimize: Iter:  13  G: -1745.237109322284596  |grad|_K:  5.539e-08  alpha:  3.660e-01  linmin:  1.041e-04  t[s]:  46889.20
ElecMinimize: Converged (|Delta G|<1.551669e-07 for 2 iters).
Setting wave functions to eigenvectors of Hamiltonian

Electronic minimization # 10 changed total free energy by -1.213329e-05 at t[s]:  46906.27

Fluid<-->Electron self-consistency loop not yet converged to 1.000000e-05 hartrees after 10 minimization pairs at t[s]:  46906.27.

# Ionic positions in lattice coordinates:
ion O   0.500000000000000   0.365407440914348   0.314208152359549 1
ion C   0.500000000000000   0.496311658302855   0.276495979261035 1
ion H   0.500000000000000   0.628786403510133   0.300017503452082 1
ion Pt   0.000000000000000   0.000000000000000  -0.155941670000000 0
ion Pt   0.500000000000000   0.500000000000000  -0.155941670000000 0
ion Pt   0.000000000000000   0.500000000000000  -0.155941670000000 0
ion Pt   0.500000000000000   0.000000000000000  -0.155941670000000 0
ion Pt   0.750000000000000   0.250000000000000  -0.077970830000000 0
ion Pt   0.250000000000000   0.750000000000000  -0.077970830000000 0
ion Pt   0.250000000000000   0.250000000000000  -0.077970830000000 0
ion Pt   0.750000000000000   0.750000000000000  -0.077970830000000 0
ion Pt   0.500000000000000   0.000026657420041   0.002438032435347 1
ion Pt   0.000000000000000  -0.000025471113995   0.002371256957378 1
ion Pt   0.000000000000000   0.500156267198410   0.002346112359747 1
ion Pt   0.500000000000000   0.499966214659309   0.002210475273398 1
ion Pt   0.749898608102046   0.250063374217095   0.091085846483234 1
ion Pt   0.249766155068349   0.750758432749139   0.091129491073497 1
ion Pt   0.250101391897954   0.250063374217095   0.091085846483234 1
ion Pt   0.750233844931651   0.750758432749139   0.091129491073497 1
ion Pt   0.000000000000000   0.000424748740733   0.161237922032894 1
ion Pt   0.000000000000000   0.500013722010868   0.160301470715767 1
ion Pt   0.500000000000000   0.000664736919516   0.160820186160090 1
ion Pt   0.500000000000000   0.501692294765136   0.159537306454033 1


# Forces in Lattice coordinates:
force O   0.000000000000000  -0.001748986710290   0.386413350440385 1
force C   0.000000000000000  -0.076571956902444  -0.354704302688217 1
force H   0.000000000000000   0.058192809871503   0.287982948012302 1
force Pt   0.000000000000000   0.000268198213246   0.086306702858202 0
force Pt   0.000000000000000   0.001394484743394  -0.172465615098661 0
force Pt   0.000000000000000  -0.000055992135658   0.083190392401814 0
force Pt   0.000000000000000  -0.000399115146189   0.096565495237886 0
force Pt  -0.004199247484372   0.012035167116649  -0.555261106877391 0
force Pt   0.005112635527276  -0.012784657583640  -0.554257564482998 0
force Pt   0.004199247484372   0.012035167116649  -0.555261106877391 0
force Pt  -0.005112635527276  -0.012784657583640  -0.554257564482998 0
force Pt   0.000000000000000   0.002572360490239   0.147185461121206 1
force Pt   0.000000000000000   0.003486726113794   0.168692548909270 1
force Pt   0.000000000000000   0.000524161704558   0.142154691049701 1
force Pt   0.000000000000000   0.001891627869139   0.055500575095274 1
force Pt   0.006357257770927  -0.014782723933171   0.003738539824971 1
force Pt  -0.007959235484409   0.023240651157174  -0.000660128591580 1
force Pt  -0.006357257770927  -0.014782723933171   0.003738539824971 1
force Pt   0.007959235484409   0.023240651157174  -0.000660128591580 1
force Pt   0.000000000000000   0.004136112585516   0.174950640536062 1
force Pt   0.000000000000000   0.007177074053165   0.190216633015439 1
force Pt   0.000000000000000  -0.001718330372011   0.176762984756691 1
force Pt   0.000000000000000  -0.012141098670602   0.729162506282285 1

# Energy components:
   A_diel =       -0.0372124647947224
   Eewald =    12861.1995008116191457
       EH =    14464.9059894552574406
     Eloc =   -29444.8447792813458364
      Enl =      -17.8091025510616312
      Exc =     -571.9433618584268970
 Exc_core =      324.9288437037855601
       KE =      581.1138474513245455
  MuShift =       -0.0057803569018577
-------------------------------------
     Etot =    -1802.4920550905437722
       TS =        0.2364631008972140
-------------------------------------
        F =    -1802.7285181914410259
      muN =      -57.4914088691564871
-------------------------------------
        G =    -1745.2371093222845957

IonicMinimize: Iter:   0  G: -1745.237109322284596  |grad|_K:  5.003e-03  t[s]:  46951.99
IonicMinimize: None of the convergence criteria satisfied after 0 iterations.

#--- Lowdin population analysis ---
# oxidation-state O -0.237
# oxidation-state C +0.255
# oxidation-state H +0.252
# oxidation-state Pt +0.055 +0.042 +0.057 +0.055 -0.051 -0.051 -0.051 -0.051 +0.005 +0.005 +0.008 -0.029 -0.046 -0.050 -0.046 -0.050 +0.048 +0.062 +0.050 -0.043


Dumping '110_2-Solvated.ionpos' ... done
Dumping '110_2-Solvated.n' ... done
Dumping '110_2-Solvated.eigStats' ... 
	eMin: -2.129059 at state 0 ( [ +0.000000 +0.000000 +0.000000 ] spin 0 )
	HOMO: -0.173593 at state 5 ( [ +0.250000 +0.500000 +0.000000 ] spin 0 )
	mu  : -0.173600
	LUMO: -0.173327 at state 0 ( [ +0.000000 +0.000000 +0.000000 ] spin 0 )
	eMax: +0.353134 at state 8 ( [ +0.500000 +0.500000 +0.000000 ] spin 0 )
	HOMO-LUMO gap: +0.000266
	Optical gap  : +0.000319 at state 4 ( [ +0.250000 +0.250000 +0.000000 ] spin 0 )
Dumping '110_2-Solvated.Ecomponents' ... done
End date and time: Fri Apr 26 14:14:45 2019  (Duration: 0-13:03:28.40)
Done!
