--------------------------------------------------------------------------
Initialization of PSM library failed.

  Error: PSM is in the finalized state
--------------------------------------------------------------------------
[node2019][[62030,1],0][btl_openib.c:880:mca_btl_openib_add_procs] could not prepare openib device for use
--------------------------------------------------------------------------
The OpenFabrics (openib) BTL failed to initialize while trying to
allocate some locked memory.  This typically can indicate that the
memlock limits are set too low.  For most HPC installations, the
memlock limits should be set to "unlimited".  The failure occured
here:

  Local host:    node2019
  OMPI source:   btl_openib.c:753
  Function:      ompi_free_list_init_ex_new()
  Device:        qib0
  Memlock limit: 65536

You may need to consult with your system administrator to get this
problem fixed.  This FAQ entry on the Open MPI web site may also be
helpful:

    http://www.open-mpi.org/faq/?category=openfabrics#ib-locked-pages
--------------------------------------------------------------------------

*************** JDFTx 1.4.2 (git hash 74b6e54) ***************

Start date and time: Sun Apr 28 01:35:54 2019
Executable /home/jfm343/JDFTXDIR/build/jdftx with command-line: -i Vacuum.in
Running on hosts (process indices):  node2019.physics.cornell.edu (0)
Divided in process groups (process indices):  0 (0)
Resource initialization completed at t[s]:      0.00
Run totals: 1 processes, 12 threads, 0 GPUs


Input parsed successfully to the following command list (including defaults):

basis kpoint-dependent
coords-type Lattice
core-overlap-check vector
coulomb-interaction Slab 001
coulomb-truncation-embed 0 0 0
davidson-band-ratio 1.1
dump End State IonicPositions ElecDensity EigStats Ecomponents
dump-name 110_4-Vacuum.$VAR
elec-cutoff 20 100
elec-eigen-algo Davidson
elec-ex-corr gga-PBEsol
elec-smearing Fermi 0.01
electronic-minimize  \
	dirUpdateScheme      FletcherReeves \
	linminMethod         DirUpdateRecommended \
	nIterations          200 \
	history              15 \
	knormThreshold       0 \
	energyDiffThreshold  1e-08 \
	nEnergyDiff          2 \
	alphaTstart          1 \
	alphaTmin            1e-10 \
	updateTestStepSize   yes \
	alphaTreduceFactor   0.1 \
	alphaTincreaseFactor 3 \
	nAlphaAdjustMax      3 \
	wolfeEnergy          0.0001 \
	wolfeGradient        0.9 \
	fdTest               no
exchange-regularization WignerSeitzTruncated
fluid None
fluid-ex-corr lda-TF lda-PZ
fluid-gummel-loop 10 1.000000e-05
fluid-minimize  \
	dirUpdateScheme      PolakRibiere \
	linminMethod         DirUpdateRecommended \
	nIterations          100 \
	history              15 \
	knormThreshold       0 \
	energyDiffThreshold  0 \
	nEnergyDiff          2 \
	alphaTstart          1 \
	alphaTmin            1e-10 \
	updateTestStepSize   yes \
	alphaTreduceFactor   0.1 \
	alphaTincreaseFactor 3 \
	nAlphaAdjustMax      3 \
	wolfeEnergy          0.0001 \
	wolfeGradient        0.9 \
	fdTest               no
fluid-solvent H2O 55.338 ScalarEOS \
	epsBulk 78.4 \
	pMol 0.92466 \
	epsInf 1.77 \
	Pvap 1.06736e-10 \
	sigmaBulk 4.62e-05 \
	Rvdw 2.61727 \
	Res 1.42 \
	tauNuc 343133 \
	omegaEl 0.55124 \
	gammaEl 0.257245
forces-output-coords Positions
ion H   0.611000000000000   0.616000000000000   0.315000000000000 1
ion H   0.168000000000000   0.433000000000000   0.315000000000000 1
ion C   0.500000000000000   0.500000000000000   0.315000000000000 1
ion O   0.558000000000000   0.351000000000000   0.315000000000000 1
ion O   0.263000000000000   0.535000000000000   0.315000000000000 1
ion Pt   0.000000000000000   0.000000000000000  -0.155941670000000 0
ion Pt   0.500000000000000   0.500000000000000  -0.155941670000000 0
ion Pt   0.000000000000000   0.500000000000000  -0.155941670000000 0
ion Pt   0.500000000000000   0.000000000000000  -0.155941670000000 0
ion Pt   0.750000000000000   0.250000000000000  -0.077970830000000 0
ion Pt   0.250000000000000   0.750000000000000  -0.077970830000000 0
ion Pt   0.250000000000000   0.250000000000000  -0.077970830000000 0
ion Pt   0.750000000000000   0.750000000000000  -0.077970830000000 0
ion Pt   0.500000000000000   0.000000000000000   0.000000000000000 1
ion Pt   0.000000000000000   0.000000000000000   0.000000000000000 1
ion Pt   0.000000000000000   0.500000000000000   0.000000000000000 1
ion Pt   0.500000000000000   0.500000000000000   0.000000000000000 1
ion Pt   0.750000000000000   0.250000000000000   0.077970830000000 1
ion Pt   0.250000000000000   0.750000000000000   0.077970830000000 1
ion Pt   0.250000000000000   0.250000000000000   0.077970830000000 1
ion Pt   0.750000000000000   0.750000000000000   0.077970830000000 1
ion Pt   0.000000000000000   0.000000000000000   0.155941670000000 1
ion Pt   0.000000000000000   0.500000000000000   0.155941670000000 1
ion Pt   0.500000000000000   0.000000000000000   0.155941670000000 1
ion Pt   0.500000000000000   0.500000000000000   0.155941670000000 1
ion-species GBRV/$ID_pbesol.uspp
ion-width 0
ionic-minimize  \
	dirUpdateScheme      L-BFGS \
	linminMethod         DirUpdateRecommended \
	nIterations          5 \
	history              15 \
	knormThreshold       0.0001 \
	energyDiffThreshold  1e-06 \
	nEnergyDiff          2 \
	alphaTstart          1 \
	alphaTmin            1e-10 \
	updateTestStepSize   yes \
	alphaTreduceFactor   0.1 \
	alphaTincreaseFactor 3 \
	nAlphaAdjustMax      3 \
	wolfeEnergy          0.0001 \
	wolfeGradient        0.9 \
	fdTest               no
kpoint   0.000000000000   0.000000000000   0.000000000000  1.00000000000000
kpoint-folding 4 4 1 
latt-move-scale 1 1 1
latt-scale 1 1 1 
lattice Orthorhombic 10.4761 14.8155 31.4284
lattice-minimize  \
	dirUpdateScheme      L-BFGS \
	linminMethod         DirUpdateRecommended \
	nIterations          0 \
	history              15 \
	knormThreshold       0 \
	energyDiffThreshold  1e-06 \
	nEnergyDiff          2 \
	alphaTstart          1 \
	alphaTmin            1e-10 \
	updateTestStepSize   yes \
	alphaTreduceFactor   0.1 \
	alphaTincreaseFactor 3 \
	nAlphaAdjustMax      3 \
	wolfeEnergy          0.0001 \
	wolfeGradient        0.9 \
	fdTest               no
lcao-params -1 1e-06 0.01
pcm-variant GLSSA13
spintype no-spin
subspace-rotation-factor 1 yes
symmetries automatic
symmetry-threshold 0.0001



---------- Setting up symmetries ----------

Found 8 point-group symmetries of the bravais lattice
Found 1 space-group symmetries with basis
Applied RMS atom displacement 0 bohrs to make symmetries exact.

---------- Initializing the Grid ----------
R = 
[    10.4761          0          0  ]
[          0    14.8155          0  ]
[          0          0    31.4284  ]
unit cell volume = 4877.97
G =
[   0.599762          0          0  ]
[          0   0.424096          0  ]
[          0          0   0.199921  ]
Minimum fftbox size, Smin = [  48  68  144  ]
Chosen fftbox size, S = [  48  70  144  ]

---------- Initializing tighter grid for wavefunction operations ----------
R = 
[    10.4761          0          0  ]
[          0    14.8155          0  ]
[          0          0    31.4284  ]
unit cell volume = 4877.97
G =
[   0.599762          0          0  ]
[          0   0.424096          0  ]
[          0          0   0.199921  ]
Minimum fftbox size, Smin = [  44  60  128  ]
Chosen fftbox size, S = [  48  60  128  ]

---------- Exchange Correlation functional ----------
Initalized PBEsol GGA exchange.
Initalized PBEsol GGA correlation.

---------- Setting up pseudopotentials ----------
Width of ionic core gaussian charges (only for fluid interactions / plotting) set to 0

Reading pseudopotential file '/home/jfm343/JDFTXDIR/build/pseudopotentials/GBRV/h_pbesol.uspp':
  Title: H.  Created by USPP 7.3.6 on 22-9-15
  Reference state energy: -0.449841.  1 valence electrons in orbitals:
    |100>  occupation: 1  eigenvalue: -0.232690
  lMax: 0  lLocal: 1  QijEcut: 6
  2 projectors sampled on a log grid with 395 points:
    l: 0  eig: -0.232690  rCut: 1.2
    l: 0  eig: 1.000000  rCut: 1.2
  Transforming local potential to a uniform radial grid of dG=0.02 with 1265 points.
  Transforming nonlocal projectors to a uniform radial grid of dG=0.02 with 432 points.
  Transforming density augmentations to a uniform radial grid of dG=0.02 with 1265 points.
  Transforming atomic orbitals to a uniform radial grid of dG=0.02 with 432 points.
  Core radius for overlap checks: 1.20 bohrs.

Reading pseudopotential file '/home/jfm343/JDFTXDIR/build/pseudopotentials/GBRV/c_pbesol.uspp':
  Title: C.  Created by USPP 7.3.6 on 3-2-2014
  Reference state energy: -5.383511.  4 valence electrons in orbitals:
    |200>  occupation: 2  eigenvalue: -0.501126
    |210>  occupation: 2  eigenvalue: -0.192448
  lMax: 1  lLocal: 2  QijEcut: 5
  4 projectors sampled on a log grid with 503 points:
    l: 0  eig: -0.501126  rCut: 1.3
    l: 0  eig: 0.000000  rCut: 1.3
    l: 1  eig: -0.192448  rCut: 1.3
    l: 1  eig: 0.000000  rCut: 1.3
  Partial core density with radius 1.1
  Transforming core density to a uniform radial grid of dG=0.02 with 1265 points.
  Transforming local potential to a uniform radial grid of dG=0.02 with 1265 points.
  Transforming nonlocal projectors to a uniform radial grid of dG=0.02 with 432 points.
  Transforming density augmentations to a uniform radial grid of dG=0.02 with 1265 points.
  Transforming atomic orbitals to a uniform radial grid of dG=0.02 with 432 points.
  Core radius for overlap checks: 1.30 bohrs.

Reading pseudopotential file '/home/jfm343/JDFTXDIR/build/pseudopotentials/GBRV/o_pbesol.uspp':
  Title: O.  Created by USPP 7.3.6 on 3-2-2014
  Reference state energy: -15.849885.  6 valence electrons in orbitals:
    |200>  occupation: 2  eigenvalue: -0.873214
    |210>  occupation: 4  eigenvalue: -0.330058
  lMax: 2  lLocal: 2  QijEcut: 6
  5 projectors sampled on a log grid with 511 points:
    l: 0  eig: -0.873214  rCut: 1.25
    l: 0  eig: 0.000000  rCut: 1.25
    l: 1  eig: -0.330058  rCut: 1.25
    l: 1  eig: 0.000000  rCut: 1.25
    l: 2  eig: 1.000000  rCut: 1.25
  Partial core density with radius 0.7
  Transforming core density to a uniform radial grid of dG=0.02 with 1265 points.
  Transforming local potential to a uniform radial grid of dG=0.02 with 1265 points.
  Transforming nonlocal projectors to a uniform radial grid of dG=0.02 with 432 points.
  Transforming density augmentations to a uniform radial grid of dG=0.02 with 1265 points.
  Transforming atomic orbitals to a uniform radial grid of dG=0.02 with 432 points.
  Core radius for overlap checks: 1.25 bohrs.

Reading pseudopotential file '/home/jfm343/JDFTXDIR/build/pseudopotentials/GBRV/pt_pbesol.uspp':
  Title: Pt.  Created by USPP 7.3.6 on 22-9-15
  Reference state energy: -104.899005.  16 valence electrons in orbitals:
    |510>  occupation: 6  eigenvalue: -2.158847
    |520>  occupation: 9.5  eigenvalue: -0.336311
    |600>  occupation: 0  eigenvalue: -0.320324
    |610>  occupation: 0  eigenvalue: -0.119800
  lMax: 2  lLocal: 3  QijEcut: 5.5
  6 projectors sampled on a log grid with 745 points:
    l: 0  eig: -0.320324  rCut: 2.45
    l: 0  eig: 1.500000  rCut: 2.45
    l: 1  eig: -2.158847  rCut: 1.6
    l: 1  eig: -0.119800  rCut: 1.6
    l: 2  eig: -0.500000  rCut: 1.6
    l: 2  eig: -0.336311  rCut: 1.6
  Partial core density with radius 1.1
  Transforming core density to a uniform radial grid of dG=0.02 with 1265 points.
  Transforming local potential to a uniform radial grid of dG=0.02 with 1265 points.
  Transforming nonlocal projectors to a uniform radial grid of dG=0.02 with 432 points.
  Transforming density augmentations to a uniform radial grid of dG=0.02 with 1265 points.
  Transforming atomic orbitals to a uniform radial grid of dG=0.02 with 432 points.
  Core radius for overlap checks: 2.45 bohrs.

Initialized 4 species with 25 total atoms.

Folded 1 k-points by 4x4x1 to 16 k-points.

---------- Setting up k-points, bands, fillings ----------
Adding inversion symmetry to k-mesh for non-inversion-symmetric unit cell.
Reduced to 10 k-points under symmetry. 
Computing the number of bands and number of electrons
Calculating initial fillings.
nElectrons: 338.000000   nBands: 254   nStates: 10

----- Setting up reduced wavefunction bases (one per k-point) -----
average nbasis = 20843.562 , ideal nbasis = 20839.040

---------- Setting up coulomb interaction ----------
Setting up double-sized grid for truncated Coulomb potentials:
R = 
[    10.4761          0          0  ]
[          0    14.8155          0  ]
[          0          0    62.8568  ]
unit cell volume = 9755.93
G =
[   0.599762          0          0  ]
[          0   0.424096          0  ]
[          0          0  0.0999604  ]
Chosen fftbox size, S = [  48  70  288  ]
Integer grid location selected as the embedding center:
   Grid: [  0  0  0  ]
   Lattice: [  0  0  0  ]
   Cartesian: [  0  0  0  ]
Constructing Wigner-Seitz cell: 6 faces (6 quadrilaterals, 0 hexagons)
Range-separation parameter for embedded mesh potentials due to point charges: 0.589372 bohrs.
Initialized slab truncation along lattice direction 001

---------- Setting up 2D ewald sum ----------
Optimum gaussian width for ewald sums = 7.432089 bohr.
Real space sums over 221 unit cells with max indices [  8  6  0  ]
Reciprocal space sums over 99 terms with max indices [  4  5  0  ]

---------- Allocating electronic variables ----------
Initializing wave functions:  linear combination of atomic orbitals
H pseudo-atom occupations:   s ( 1 )
C pseudo-atom occupations:   s ( 2 )  p ( 2 )
O pseudo-atom occupations:   s ( 2 )  p ( 4 )
Pt pseudo-atom occupations:   s ( 0 )  p ( 6 0 )  d ( 10 )
	FillingsUpdate:  mu: -1.869457460  nElectrons: 338.000000
LCAOMinimize: Iter:   0  F: -1805.5983111594334787  |grad|_K:  2.457e-02  alpha:  1.000e+00
LCAOMinimize: 	Step increased F by 1.264443e+02, reducing alpha to 1.759605e-02.
	FillingsUpdate:  mu: -1.365886394  nElectrons: 338.000000
LCAOMinimize: Iter:   1  F: -1810.9354552109973611  |grad|_K:  1.607e-02  alpha:  1.760e-02  linmin: -2.122e-01  cgtest:  7.567e-01  t[s]:    449.46
LCAOMinimize: Encountered beta<0, resetting CG.
LCAOMinimize: 	Predicted alpha/alphaT>3.000000, increasing alphaT to 5.278814e-02.
	FillingsUpdate:  mu: -0.190713814  nElectrons: 338.000000
LCAOMinimize: Iter:   2  F: -1816.1128461538396550  |grad|_K:  1.659e-02  alpha:  6.438e-02  linmin:  4.674e-02  cgtest: -2.099e-01  t[s]:    587.40
	FillingsUpdate:  mu: -0.059487420  nElectrons: 338.000000
LCAOMinimize: Iter:   3  F: -1816.7487524949549424  |grad|_K:  8.120e-03  alpha:  1.117e-02  linmin:  6.821e-03  cgtest:  7.610e-01  t[s]:    698.64
LCAOMinimize: Encountered beta<0, resetting CG.
	FillingsUpdate:  mu: -0.205192501  nElectrons: 338.000000
LCAOMinimize: Iter:   4  F: -1817.3589883469069264  |grad|_K:  7.933e-03  alpha:  2.725e-02  linmin: -2.407e-02  cgtest:  3.297e-02  t[s]:    808.17
	FillingsUpdate:  mu: -0.429897429  nElectrons: 338.000000
LCAOMinimize: Iter:   5  F: -1817.9730539250258516  |grad|_K:  2.570e-03  alpha:  2.771e-02  linmin: -3.666e-02  cgtest:  2.200e-02  t[s]:    916.57
LCAOMinimize: 	Predicted alpha/alphaT>3.000000, increasing alphaT to 8.312294e-02.
	FillingsUpdate:  mu: -0.214670859  nElectrons: 338.000000
LCAOMinimize: Iter:   6  F: -1818.4376234918527189  |grad|_K:  2.813e-03  alpha:  1.885e-01  linmin: -3.272e-02  cgtest:  1.354e-01  t[s]:   1053.27
	FillingsUpdate:  mu: -0.186755859  nElectrons: 338.000000
LCAOMinimize: Iter:   7  F: -1818.4992269507256424  |grad|_K:  2.198e-03  alpha:  2.766e-02  linmin:  5.774e-02  cgtest: -6.331e-01  t[s]:   1164.93
	FillingsUpdate:  mu: -0.122299121  nElectrons: 338.000000
LCAOMinimize: Iter:   8  F: -1818.5226227665398255  |grad|_K:  3.101e-03  alpha:  2.940e-02  linmin: -6.798e-04  cgtest:  9.528e-01  t[s]:   1275.67
	FillingsUpdate:  mu: -0.160057630  nElectrons: 338.000000
LCAOMinimize: Iter:   9  F: -1818.5771669229113741  |grad|_K:  7.843e-04  alpha:  1.733e-02  linmin: -8.732e-04  cgtest: -2.336e-01  t[s]:   1382.65
LCAOMinimize: 	Predicted alpha/alphaT>3.000000, increasing alphaT to 5.198334e-02.
LCAOMinimize: 	Predicted alpha/alphaT>3.000000, increasing alphaT to 1.559500e-01.
	FillingsUpdate:  mu: -0.211816846  nElectrons: 338.000000
LCAOMinimize: Iter:  10  F: -1818.6319709207621145  |grad|_K:  5.774e-04  alpha:  2.707e-01  linmin: -4.036e-03  cgtest:  1.258e-02  t[s]:   1545.66
	FillingsUpdate:  mu: -0.200467250  nElectrons: 338.000000
LCAOMinimize: Iter:  11  F: -1818.6426339454951631  |grad|_K:  5.498e-04  alpha:  8.937e-02  linmin: -1.067e-02  cgtest:  6.313e-02  t[s]:   1654.05
	FillingsUpdate:  mu: -0.201273601  nElectrons: 338.000000
LCAOMinimize: Iter:  12  F: -1818.6448027378046390  |grad|_K:  2.472e-04  alpha:  2.064e-02  linmin: -2.119e-03  cgtest: -1.598e-01  t[s]:   1761.40
LCAOMinimize: 	Predicted alpha/alphaT>3.000000, increasing alphaT to 6.192994e-02.
	FillingsUpdate:  mu: -0.210097925  nElectrons: 338.000000
LCAOMinimize: Iter:  13  F: -1818.6469340284193095  |grad|_K:  1.039e-04  alpha:  1.068e-01  linmin:  2.941e-03  cgtest:  1.344e-01  t[s]:   1898.79
	FillingsUpdate:  mu: -0.215392024  nElectrons: 338.000000
LCAOMinimize: Iter:  14  F: -1818.6473276059325599  |grad|_K:  8.026e-05  alpha:  1.126e-01  linmin:  5.364e-04  cgtest:  4.262e-03  t[s]:   2008.07
	FillingsUpdate:  mu: -0.215330431  nElectrons: 338.000000
LCAOMinimize: Iter:  15  F: -1818.6474113017172840  |grad|_K:  9.037e-05  alpha:  3.990e-02  linmin: -3.548e-04  cgtest:  5.701e-03  t[s]:   2120.05
	FillingsUpdate:  mu: -0.214409190  nElectrons: 338.000000
LCAOMinimize: Iter:  16  F: -1818.6475314204092228  |grad|_K:  2.386e-05  alpha:  4.514e-02  linmin:  1.010e-04  cgtest: -3.219e-02  t[s]:   2228.48
LCAOMinimize: 	Predicted alpha/alphaT>3.000000, increasing alphaT to 1.354106e-01.
	FillingsUpdate:  mu: -0.213812758  nElectrons: 338.000000
LCAOMinimize: Iter:  17  F: -1818.6475662715813542  |grad|_K:  1.998e-05  alpha:  1.884e-01  linmin:  2.032e-04  cgtest:  9.587e-04  t[s]:   2368.16
	FillingsUpdate:  mu: -0.214251176  nElectrons: 338.000000
LCAOMinimize: Iter:  18  F: -1818.6475755506421592  |grad|_K:  2.549e-05  alpha:  7.164e-02  linmin:  6.421e-05  cgtest:  1.210e-04  t[s]:   2476.90
	FillingsUpdate:  mu: -0.214527101  nElectrons: 338.000000
LCAOMinimize: Iter:  19  F: -1818.6475808335951569  |grad|_K:  1.088e-05  alpha:  2.504e-02  linmin:  1.328e-04  cgtest:  1.008e-04  t[s]:   2585.32
LCAOMinimize: 	Predicted alpha/alphaT>3.000000, increasing alphaT to 7.511334e-02.
	FillingsUpdate:  mu: -0.214261340  nElectrons: 338.000000
LCAOMinimize: Iter:  20  F: -1818.6475880891637189  |grad|_K:  7.124e-06  alpha:  1.888e-01  linmin:  1.247e-04  cgtest: -1.562e-04  t[s]:   2722.32
	FillingsUpdate:  mu: -0.214139506  nElectrons: 338.000000
LCAOMinimize: Iter:  21  F: -1818.6475904814446949  |grad|_K:  8.842e-06  alpha:  1.451e-01  linmin:  1.645e-05  cgtest:  6.650e-04  t[s]:   2833.33
	FillingsUpdate:  mu: -0.214154843  nElectrons: 338.000000
LCAOMinimize: Iter:  22  F: -1818.6475910479839513  |grad|_K:  5.367e-06  alpha:  2.227e-02  linmin: -8.737e-05  cgtest:  1.251e-03  t[s]:   2940.83
LCAOMinimize: 	Predicted alpha/alphaT>3.000000, increasing alphaT to 6.679664e-02.
	FillingsUpdate:  mu: -0.214321004  nElectrons: 338.000000
LCAOMinimize: Iter:  23  F: -1818.6475918646824539  |grad|_K:  2.338e-06  alpha:  8.701e-02  linmin: -4.960e-04  cgtest:  6.515e-04  t[s]:   3077.41
LCAOMinimize: Converged (|Delta F|<1.000000e-06 for 2 iters).


---- Citations for features of the code used in this run ----

   Software package:
      R. Sundararaman, K. Letchworth-Weaver, K.A. Schwarz, D. Gunceler, Y. Ozhabes and T.A. Arias, 'JDFTx: software for joint density-functional theory', SoftwareX 6, 278 (2017)

   gga-PBEsol exchange-correlation functional:
      J.P. Perdew et al., Phys. Rev. Lett. 100, 136406 (2008)

   Pseudopotentials:
      KF Garrity, JW Bennett, KM Rabe and D Vanderbilt, Comput. Mater. Sci. 81, 446 (2014)

   Truncated Coulomb potentials:
      R. Sundararaman and T.A. Arias, Phys. Rev. B 87, 165122 (2013)

   Total energy minimization with Auxiliary Hamiltonian:
      C. Freysoldt, S. Boeck, and J. Neugebauer, Phys. Rev. B 79, 241103(R) (2009)

This list may not be complete. Please suggest additional citations or
report any other bugs at https://github.com/shankar1729/jdftx/issues

Initialization completed successfully at t[s]:   3170.00


-------- Electronic minimization -----------
	FillingsUpdate:  mu: -0.214321004  nElectrons: 338.000000
ElecMinimize: Iter:   0  F: -1818.647591864689730  |grad|_K:  1.438e-04  alpha:  1.000e+00
	FillingsUpdate:  mu: -0.165253605  nElectrons: 338.000000
	SubspaceRotationAdjust: set factor to 1
ElecMinimize: Iter:   1  F: -1819.133182991420881  |grad|_K:  7.208e-05  alpha:  4.478e-01  linmin:  9.946e-05  t[s]:   3819.28
	FillingsUpdate:  mu: -0.225565588  nElectrons: 338.000000
	SubspaceRotationAdjust: set factor to 0.608
ElecMinimize: Iter:   2  F: -1819.206028355177068  |grad|_K:  9.049e-05  alpha:  2.639e-01  linmin: -2.236e-05  t[s]:   4266.88
	FillingsUpdate:  mu: -0.206665781  nElectrons: 338.000000
	SubspaceRotationAdjust: set factor to 0.363
ElecMinimize: Iter:   3  F: -1819.227738312009478  |grad|_K:  7.967e-05  alpha:  4.477e-02  linmin: -3.724e-04  t[s]:   4718.23
	FillingsUpdate:  mu: -0.190108696  nElectrons: 338.000000
	SubspaceRotationAdjust: set factor to 0.167
ElecMinimize: Iter:   4  F: -1819.250242032795995  |grad|_K:  2.929e-05  alpha:  6.104e-02  linmin:  6.073e-05  t[s]:   5171.60
ElecMinimize: 	Predicted alpha/alphaT>3.000000, increasing alphaT to 1.831349e-01.
	FillingsUpdate:  mu: -0.172786984  nElectrons: 338.000000
	SubspaceRotationAdjust: set factor to 0.121
	SubspaceRotationAdjust: resetting CG because factor has changed by 0.121161
ElecMinimize: 	State modified externally: resetting search direction.
ElecMinimize: Iter:   5  F: -1819.264179695489702  |grad|_K:  2.307e-05  alpha:  3.110e-01
	FillingsUpdate:  mu: -0.180716199  nElectrons: 338.000000
	SubspaceRotationAdjust: set factor to 0.109
ElecMinimize: Iter:   6  F: -1819.268611092988294  |grad|_K:  1.477e-05  alpha:  1.572e-01  linmin:  1.978e-04  t[s]:   6349.71
	FillingsUpdate:  mu: -0.192638895  nElectrons: 338.000000
	SubspaceRotationAdjust: set factor to 0.0907
ElecMinimize: Iter:   7  F: -1819.272413621108171  |grad|_K:  8.775e-06  alpha:  3.280e-01  linmin: -2.123e-05  t[s]:   6798.69
	FillingsUpdate:  mu: -0.187624476  nElectrons: 338.000000
	SubspaceRotationAdjust: set factor to 0.114
ElecMinimize: Iter:   8  F: -1819.274900127983301  |grad|_K:  5.899e-06  alpha:  6.074e-01  linmin:  6.489e-05  t[s]:   7255.81
	FillingsUpdate:  mu: -0.186037840  nElectrons: 338.000000
	SubspaceRotationAdjust: set factor to 0.14
ElecMinimize: Iter:   9  F: -1819.275832811225200  |grad|_K:  4.762e-06  alpha:  5.055e-01  linmin:  1.211e-05  t[s]:   7710.54
	FillingsUpdate:  mu: -0.185424699  nElectrons: 338.000000
	SubspaceRotationAdjust: set factor to 0.0981
ElecMinimize: Iter:  10  F: -1819.276390528209049  |grad|_K:  6.415e-06  alpha:  4.623e-01  linmin:  7.807e-06  t[s]:   8161.94
	FillingsUpdate:  mu: -0.185368314  nElectrons: 338.000000
	SubspaceRotationAdjust: set factor to 0.0826
ElecMinimize: Iter:  11  F: -1819.276882321441690  |grad|_K:  4.809e-06  alpha:  2.238e-01  linmin: -3.740e-06  t[s]:   8615.50
ElecMinimize: 	Predicted alpha/alphaT>3.000000, increasing alphaT to 6.713065e-01.
	FillingsUpdate:  mu: -0.184971016  nElectrons: 338.000000
	SubspaceRotationAdjust: set factor to 0.101
ElecMinimize: Iter:  12  F: -1819.277889058871779  |grad|_K:  5.271e-06  alpha:  8.162e-01  linmin:  7.007e-06  t[s]:   9175.62
	FillingsUpdate:  mu: -0.185122923  nElectrons: 338.000000
	SubspaceRotationAdjust: set factor to 0.0826
ElecMinimize: Iter:  13  F: -1819.278437803343650  |grad|_K:  5.345e-06  alpha:  3.694e-01  linmin: -8.297e-06  t[s]:   9630.00
	FillingsUpdate:  mu: -0.184980290  nElectrons: 338.000000
	SubspaceRotationAdjust: set factor to 0.0667
ElecMinimize: Iter:  14  F: -1819.278878671032999  |grad|_K:  3.292e-06  alpha:  2.875e-01  linmin:  5.557e-07  t[s]:  10082.83
	FillingsUpdate:  mu: -0.183616539  nElectrons: 338.000000
	SubspaceRotationAdjust: set factor to 0.0764
ElecMinimize: Iter:  15  F: -1819.279137134155008  |grad|_K:  2.294e-06  alpha:  4.478e-01  linmin: -3.883e-06  t[s]:  10529.85
	FillingsUpdate:  mu: -0.183058468  nElectrons: 338.000000
	SubspaceRotationAdjust: set factor to 0.0675
ElecMinimize: Iter:  16  F: -1819.279239897264461  |grad|_K:  1.689e-06  alpha:  3.661e-01  linmin: -3.284e-06  t[s]:  10985.19
	FillingsUpdate:  mu: -0.182940465  nElectrons: 338.000000
	SubspaceRotationAdjust: set factor to 0.0583
ElecMinimize: Iter:  17  F: -1819.279289505603629  |grad|_K:  1.124e-06  alpha:  3.260e-01  linmin: -1.868e-07  t[s]:  11436.05
	FillingsUpdate:  mu: -0.182967712  nElectrons: 338.000000
	SubspaceRotationAdjust: set factor to 0.0777
ElecMinimize: Iter:  18  F: -1819.279315257014332  |grad|_K:  7.359e-07  alpha:  3.825e-01  linmin:  1.283e-06  t[s]:  11885.01
	FillingsUpdate:  mu: -0.182956655  nElectrons: 338.000000
	SubspaceRotationAdjust: set factor to 0.0778
ElecMinimize: Iter:  19  F: -1819.279328244544104  |grad|_K:  6.588e-07  alpha:  4.505e-01  linmin:  1.704e-06  t[s]:  12333.47
	FillingsUpdate:  mu: -0.182929427  nElectrons: 338.000000
	SubspaceRotationAdjust: set factor to 0.0856
ElecMinimize: Iter:  20  F: -1819.279338553944854  |grad|_K:  7.165e-07  alpha:  4.464e-01  linmin:  1.591e-06  t[s]:  12783.21
	FillingsUpdate:  mu: -0.182979967  nElectrons: 338.000000
	SubspaceRotationAdjust: set factor to 0.102
ElecMinimize: Iter:  21  F: -1819.279351761372709  |grad|_K:  7.304e-07  alpha:  4.840e-01  linmin:  2.710e-06  t[s]:  13229.06
	FillingsUpdate:  mu: -0.183251144  nElectrons: 338.000000
	SubspaceRotationAdjust: set factor to 0.118
ElecMinimize: Iter:  22  F: -1819.279369964260241  |grad|_K:  8.714e-07  alpha:  6.450e-01  linmin:  4.688e-06  t[s]:  13685.90
	FillingsUpdate:  mu: -0.183574200  nElectrons: 338.000000
	SubspaceRotationAdjust: set factor to 0.108
ElecMinimize: Iter:  23  F: -1819.279385832716798  |grad|_K:  1.025e-06  alpha:  3.937e-01  linmin:  6.923e-07  t[s]:  14141.27
	FillingsUpdate:  mu: -0.183887332  nElectrons: 338.000000
	SubspaceRotationAdjust: set factor to 0.0947
ElecMinimize: Iter:  24  F: -1819.279401012471681  |grad|_K:  7.763e-07  alpha:  2.695e-01  linmin:  1.090e-07  t[s]:  14591.45
	FillingsUpdate:  mu: -0.184009667  nElectrons: 338.000000
	SubspaceRotationAdjust: set factor to 0.109
ElecMinimize: Iter:  25  F: -1819.279414708849345  |grad|_K:  6.130e-07  alpha:  4.309e-01  linmin:  7.812e-06  t[s]:  15040.87
	FillingsUpdate:  mu: -0.184036875  nElectrons: 338.000000
	SubspaceRotationAdjust: set factor to 0.106
ElecMinimize: Iter:  26  F: -1819.279420478493648  |grad|_K:  5.071e-07  alpha:  2.933e-01  linmin: -6.668e-07  t[s]:  15489.35
	FillingsUpdate:  mu: -0.184082184  nElectrons: 338.000000
	SubspaceRotationAdjust: set factor to 0.114
ElecMinimize: Iter:  27  F: -1819.279424000793369  |grad|_K:  3.693e-07  alpha:  2.568e-01  linmin:  1.167e-07  t[s]:  15939.35
	FillingsUpdate:  mu: -0.184124827  nElectrons: 338.000000
	SubspaceRotationAdjust: set factor to 0.127
ElecMinimize: Iter:  28  F: -1819.279426568341705  |grad|_K:  2.918e-07  alpha:  3.536e-01  linmin:  6.236e-07  t[s]:  16385.95
	FillingsUpdate:  mu: -0.184102648  nElectrons: 338.000000
	SubspaceRotationAdjust: set factor to 0.107
ElecMinimize: Iter:  29  F: -1819.279428506139539  |grad|_K:  3.019e-07  alpha:  4.275e-01  linmin:  7.707e-07  t[s]:  16835.11
	FillingsUpdate:  mu: -0.184047504  nElectrons: 338.000000
	SubspaceRotationAdjust: set factor to 0.107
ElecMinimize: Iter:  30  F: -1819.279429826186743  |grad|_K:  2.977e-07  alpha:  2.722e-01  linmin:  3.185e-07  t[s]:  17291.38
	FillingsUpdate:  mu: -0.183936344  nElectrons: 338.000000
	SubspaceRotationAdjust: set factor to 0.137
ElecMinimize: Iter:  31  F: -1819.279431657125315  |grad|_K:  2.780e-07  alpha:  3.885e-01  linmin:  1.246e-06  t[s]:  17740.89
	FillingsUpdate:  mu: -0.183832590  nElectrons: 338.000000
	SubspaceRotationAdjust: set factor to 0.158
ElecMinimize: Iter:  32  F: -1819.279433522567160  |grad|_K:  3.162e-07  alpha:  4.550e-01  linmin:  1.216e-06  t[s]:  18194.73
	FillingsUpdate:  mu: -0.183760905  nElectrons: 338.000000
	SubspaceRotationAdjust: set factor to 0.143
ElecMinimize: Iter:  33  F: -1819.279434890130460  |grad|_K:  3.408e-07  alpha:  2.574e-01  linmin:  9.391e-08  t[s]:  18651.36
	FillingsUpdate:  mu: -0.183670878  nElectrons: 338.000000
	SubspaceRotationAdjust: set factor to 0.147
ElecMinimize: Iter:  34  F: -1819.279436429705811  |grad|_K:  2.562e-07  alpha:  2.488e-01  linmin: -9.542e-08  t[s]:  19104.34
	FillingsUpdate:  mu: -0.183595340  nElectrons: 338.000000
	SubspaceRotationAdjust: set factor to 0.183
ElecMinimize: Iter:  35  F: -1819.279437801259974  |grad|_K:  2.217e-07  alpha:  3.920e-01  linmin: -5.109e-07  t[s]:  19556.32
	FillingsUpdate:  mu: -0.183567593  nElectrons: 338.000000
	SubspaceRotationAdjust: set factor to 0.166
ElecMinimize: Iter:  36  F: -1819.279438662048051  |grad|_K:  2.274e-07  alpha:  3.284e-01  linmin: -3.728e-07  t[s]:  20009.46
	FillingsUpdate:  mu: -0.183563585  nElectrons: 338.000000
	SubspaceRotationAdjust: set factor to 0.157
ElecMinimize: Iter:  37  F: -1819.279439142841511  |grad|_K:  2.019e-07  alpha:  1.746e-01  linmin: -9.331e-09  t[s]:  20463.37
	FillingsUpdate:  mu: -0.183580840  nElectrons: 338.000000
	SubspaceRotationAdjust: set factor to 0.208
ElecMinimize: Iter:  38  F: -1819.279439741779697  |grad|_K:  1.524e-07  alpha:  2.762e-01  linmin:  5.728e-07  t[s]:  20911.79
	FillingsUpdate:  mu: -0.183613138  nElectrons: 338.000000
	SubspaceRotationAdjust: set factor to 0.216
ElecMinimize: Iter:  39  F: -1819.279440238334246  |grad|_K:  1.614e-07  alpha:  4.028e-01  linmin:  4.305e-07  t[s]:  21360.02
	FillingsUpdate:  mu: -0.183643866  nElectrons: 338.000000
	SubspaceRotationAdjust: set factor to 0.173
ElecMinimize: Iter:  40  F: -1819.279440520740764  |grad|_K:  1.894e-07  alpha:  2.036e-01  linmin:  2.968e-08  t[s]:  21813.78
	FillingsUpdate:  mu: -0.183690525  nElectrons: 338.000000
	SubspaceRotationAdjust: set factor to 0.194
ElecMinimize: Iter:  41  F: -1819.279440851152231  |grad|_K:  1.329e-07  alpha:  1.728e-01  linmin:  1.632e-07  t[s]:  22267.08
	FillingsUpdate:  mu: -0.183733213  nElectrons: 338.000000
	SubspaceRotationAdjust: set factor to 0.245
ElecMinimize: Iter:  42  F: -1819.279441193840285  |grad|_K:  1.262e-07  alpha:  3.646e-01  linmin:  7.576e-08  t[s]:  22726.97
	FillingsUpdate:  mu: -0.183752131  nElectrons: 338.000000
	SubspaceRotationAdjust: set factor to 0.205
ElecMinimize: Iter:  43  F: -1819.279441377796047  |grad|_K:  1.558e-07  alpha:  2.180e-01  linmin: -9.810e-08  t[s]:  23177.96
	FillingsUpdate:  mu: -0.183773032  nElectrons: 338.000000
	SubspaceRotationAdjust: set factor to 0.195
ElecMinimize: Iter:  44  F: -1819.279441560287978  |grad|_K:  1.078e-07  alpha:  1.409e-01  linmin:  8.129e-08  t[s]:  23630.44
	FillingsUpdate:  mu: -0.183796072  nElectrons: 338.000000
	SubspaceRotationAdjust: set factor to 0.27
ElecMinimize: Iter:  45  F: -1819.279441760052578  |grad|_K:  9.026e-08  alpha:  3.234e-01  linmin:  5.992e-07  t[s]:  24080.24
	FillingsUpdate:  mu: -0.183805818  nElectrons: 338.000000
	SubspaceRotationAdjust: set factor to 0.216
ElecMinimize: Iter:  46  F: -1819.279441903657698  |grad|_K:  1.080e-07  alpha:  3.322e-01  linmin: -1.398e-07  t[s]:  24536.94
	FillingsUpdate:  mu: -0.183804082  nElectrons: 338.000000
	SubspaceRotationAdjust: set factor to 0.196
ElecMinimize: Iter:  47  F: -1819.279441974944348  |grad|_K:  9.359e-08  alpha:  1.149e-01  linmin: -6.973e-09  t[s]:  24987.03
	FillingsUpdate:  mu: -0.183788310  nElectrons: 338.000000
	SubspaceRotationAdjust: set factor to 0.296
ElecMinimize: Iter:  48  F: -1819.279442090124576  |grad|_K:  7.244e-08  alpha:  2.521e-01  linmin:  2.964e-06  t[s]:  25439.07
	FillingsUpdate:  mu: -0.183774456  nElectrons: 338.000000
	SubspaceRotationAdjust: set factor to 0.216
ElecMinimize: Iter:  49  F: -1819.279442171451592  |grad|_K:  1.005e-07  alpha:  3.001e-01  linmin:  1.833e-06  t[s]:  25891.91
	FillingsUpdate:  mu: -0.183766894  nElectrons: 338.000000
	SubspaceRotationAdjust: set factor to 0.197
ElecMinimize: Iter:  50  F: -1819.279442217315591  |grad|_K:  6.723e-08  alpha:  8.614e-02  linmin:  1.108e-09  t[s]:  26341.39
ElecMinimize: 	Predicted alpha/alphaT>3.000000, increasing alphaT to 2.584236e-01.
	FillingsUpdate:  mu: -0.183753307  nElectrons: 338.000000
	SubspaceRotationAdjust: set factor to 0.243
ElecMinimize: Iter:  51  F: -1819.279442292596514  |grad|_K:  6.767e-08  alpha:  3.149e-01  linmin:  2.228e-06  t[s]:  26898.38
	FillingsUpdate:  mu: -0.183745333  nElectrons: 338.000000
	SubspaceRotationAdjust: set factor to 0.213
ElecMinimize: Iter:  52  F: -1819.279442324673710  |grad|_K:  6.734e-08  alpha:  1.357e-01  linmin: -2.112e-07  t[s]:  27349.49
	FillingsUpdate:  mu: -0.183732105  nElectrons: 338.000000
	SubspaceRotationAdjust: set factor to 0.281
ElecMinimize: Iter:  53  F: -1819.279442373586789  |grad|_K:  4.719e-08  alpha:  2.040e-01  linmin:  1.604e-06  t[s]:  27803.85
	FillingsUpdate:  mu: -0.183722881  nElectrons: 338.000000
	SubspaceRotationAdjust: set factor to 0.233
ElecMinimize: Iter:  54  F: -1819.279442411082528  |grad|_K:  5.780e-08  alpha:  3.157e-01  linmin: -1.997e-06  t[s]:  28259.95
	FillingsUpdate:  mu: -0.183719813  nElectrons: 338.000000
	SubspaceRotationAdjust: set factor to 0.204
ElecMinimize: Iter:  55  F: -1819.279442428794255  |grad|_K:  4.754e-08  alpha:  1.002e-01  linmin:  1.779e-07  t[s]:  28707.85
	FillingsUpdate:  mu: -0.183719170  nElectrons: 338.000000
	SubspaceRotationAdjust: set factor to 0.309
ElecMinimize: Iter:  56  F: -1819.279442457827827  |grad|_K:  3.823e-08  alpha:  2.744e-01  linmin:  1.649e-05  t[s]:  29159.61
	FillingsUpdate:  mu: -0.183719161  nElectrons: 338.000000
	SubspaceRotationAdjust: set factor to 0.224
ElecMinimize: Iter:  57  F: -1819.279442474338794  |grad|_K:  5.138e-08  alpha:  2.370e-01  linmin:  1.412e-06  t[s]:  29609.36
	FillingsUpdate:  mu: -0.183719604  nElectrons: 338.000000
	SubspaceRotationAdjust: set factor to 0.223
ElecMinimize: Iter:  58  F: -1819.279442487460528  |grad|_K:  3.468e-08  alpha:  9.689e-02  linmin: -8.307e-07  t[s]:  30058.64
ElecMinimize: 	Predicted alpha/alphaT>3.000000, increasing alphaT to 2.906664e-01.
	FillingsUpdate:  mu: -0.183723023  nElectrons: 338.000000
	SubspaceRotationAdjust: set factor to 0.314
ElecMinimize: Iter:  59  F: -1819.279442506874602  |grad|_K:  3.157e-08  alpha:  3.026e-01  linmin: -1.313e-06  t[s]:  30613.15
	FillingsUpdate:  mu: -0.183730129  nElectrons: 338.000000
	SubspaceRotationAdjust: set factor to 0.242
ElecMinimize: Iter:  60  F: -1819.279442522215277  |grad|_K:  4.297e-08  alpha:  2.898e-01  linmin:  2.541e-06  t[s]:  31067.67
	FillingsUpdate:  mu: -0.183734441  nElectrons: 338.000000
	SubspaceRotationAdjust: set factor to 0.208
ElecMinimize: Iter:  61  F: -1819.279442530428469  |grad|_K:  2.919e-08  alpha:  8.045e-02  linmin:  8.392e-07  t[s]:  31522.72
ElecMinimize: 	Predicted alpha/alphaT>3.000000, increasing alphaT to 2.413576e-01.
	FillingsUpdate:  mu: -0.183742164  nElectrons: 338.000000
	SubspaceRotationAdjust: set factor to 0.267
ElecMinimize: Iter:  62  F: -1819.279442543204595  |grad|_K:  2.833e-08  alpha:  2.703e-01  linmin: -3.274e-06  t[s]:  32083.73
	FillingsUpdate:  mu: -0.183744960  nElectrons: 338.000000
	SubspaceRotationAdjust: set factor to 0.231
ElecMinimize: Iter:  63  F: -1819.279442548721818  |grad|_K:  2.921e-08  alpha:  1.352e-01  linmin: -6.482e-07  t[s]:  32535.55
	FillingsUpdate:  mu: -0.183746805  nElectrons: 338.000000
	SubspaceRotationAdjust: set factor to 0.258
ElecMinimize: Iter:  64  F: -1819.279442557187394  |grad|_K:  2.092e-08  alpha:  2.004e-01  linmin:  9.404e-06  t[s]:  32990.78
ElecMinimize: Converged (|Delta F|<1.000000e-08 for 2 iters).
Setting wave functions to eigenvectors of Hamiltonian

# Ionic positions in lattice coordinates:
ion H   0.611000000000000   0.616000000000000   0.315000000000000 1
ion H   0.168000000000000   0.433000000000000   0.315000000000000 1
ion C   0.500000000000000   0.500000000000000   0.315000000000000 1
ion O   0.558000000000000   0.351000000000000   0.315000000000000 1
ion O   0.263000000000000   0.535000000000000   0.315000000000000 1
ion Pt   0.000000000000000   0.000000000000000  -0.155941670000000 0
ion Pt   0.500000000000000   0.500000000000000  -0.155941670000000 0
ion Pt   0.000000000000000   0.500000000000000  -0.155941670000000 0
ion Pt   0.500000000000000   0.000000000000000  -0.155941670000000 0
ion Pt   0.750000000000000   0.250000000000000  -0.077970830000000 0
ion Pt   0.250000000000000   0.750000000000000  -0.077970830000000 0
ion Pt   0.250000000000000   0.250000000000000  -0.077970830000000 0
ion Pt   0.750000000000000   0.750000000000000  -0.077970830000000 0
ion Pt   0.500000000000000   0.000000000000000   0.000000000000000 1
ion Pt   0.000000000000000   0.000000000000000   0.000000000000000 1
ion Pt   0.000000000000000   0.500000000000000   0.000000000000000 1
ion Pt   0.500000000000000   0.500000000000000   0.000000000000000 1
ion Pt   0.750000000000000   0.250000000000000   0.077970830000000 1
ion Pt   0.250000000000000   0.750000000000000   0.077970830000000 1
ion Pt   0.250000000000000   0.250000000000000   0.077970830000000 1
ion Pt   0.750000000000000   0.750000000000000   0.077970830000000 1
ion Pt   0.000000000000000   0.000000000000000   0.155941670000000 1
ion Pt   0.000000000000000   0.500000000000000   0.155941670000000 1
ion Pt   0.500000000000000   0.000000000000000   0.155941670000000 1
ion Pt   0.500000000000000   0.500000000000000   0.155941670000000 1


# Forces in Lattice coordinates:
force H   0.062952496870039   0.091002516005175   0.082319520708082 1
force H  -0.126191546383452  -0.514092000157968   0.001412211410169 1
force C  -0.304070239240884  -0.310848999848559  -0.348576179681435 1
force O   0.324680486303866  -0.183824130737069   0.130654119208396 1
force O   0.015504494624510   0.926028491817871   0.274697737489506 1
force Pt  -0.000072650905753  -0.000374336882495  -0.169150299710826 0
force Pt   0.001028490144592   0.000066672301432  -0.171360674095811 0
force Pt  -0.000996683947308  -0.000412535782942  -0.167859456454566 0
force Pt   0.000098874968548  -0.000010268067104  -0.169244628092876 0
force Pt  -0.000358907321866   0.000707688076422  -1.340681211419227 0
force Pt   0.000323042993044  -0.000254099247821  -1.339105989156187 0
force Pt   0.000515130083077   0.000413960811756  -1.338751333376688 0
force Pt  -0.000244929645616   0.000267922356049  -1.334809917205000 0
force Pt   0.000501691747076   0.001358472824566   0.003299782551856 1
force Pt  -0.000105035516937  -0.001677148473166  -0.006202927512979 1
force Pt  -0.001668841738832  -0.000839316085203   0.003748171355024 1
force Pt  -0.001820586297950   0.007001113199078   0.020794904018484 1
force Pt   0.005783030500425  -0.008729707438379   1.312856185260699 1
force Pt  -0.001591301020661   0.007463281798698   1.318242163103113 1
force Pt  -0.005366043565478  -0.014532172997398   1.311100452960650 1
force Pt   0.001375015748776   0.012258487787223   1.321682280670088 1
force Pt  -0.000072461096062   0.002352483189881   0.168853664353620 1
force Pt   0.000007421945023   0.004803553029966   0.071848482600192 1
force Pt   0.000154497787156   0.004082633876931   0.165725556694193 1
force Pt   0.028372962118696  -0.022351188188481   0.183366596218149 1

# Energy components:
   Eewald =   -12193.3995751924230717
       EH =   -10654.3562288815264765
     Eloc =    20705.6939624246660969
      Enl =      -15.5437868594743236
      Exc =     -576.0905093144980356
 Exc_core =      324.9917618719914572
       KE =      589.6652910324029335
-------------------------------------
     Etot =    -1819.0390849188615903
       TS =        0.2403576383258071
-------------------------------------
        F =    -1819.2794425571873944

IonicMinimize: Iter:   0  F: -1819.279442557187394  |grad|_K:  1.719e-02  t[s]:  33064.89

#--- Lowdin population analysis ---
# oxidation-state H +0.226 +0.433
# oxidation-state C +0.406
# oxidation-state O -0.314 -0.387
# oxidation-state Pt +0.068 +0.068 +0.069 +0.068 -0.045 -0.045 -0.044 -0.044 +0.016 +0.016 +0.015 +0.014 -0.038 -0.041 -0.043 -0.045 +0.058 +0.009 +0.058 -0.024


-------- Electronic minimization -----------
	FillingsUpdate:  mu: -0.108211929  nElectrons: 338.000000
ElecMinimize: Iter:   0  F: -1818.942830956567605  |grad|_K:  1.692e-04  alpha:  1.000e+00
	FillingsUpdate:  mu: -0.108187143  nElectrons: 338.000000
	SubspaceRotationAdjust: set factor to 0.162
ElecMinimize: Iter:   1  F: -1819.086376456240032  |grad|_K:  1.728e-04  alpha:  1.218e-01  linmin:  1.513e-02  t[s]:  33856.37
	FillingsUpdate:  mu: -0.202456169  nElectrons: 338.000000
	SubspaceRotationAdjust: set factor to 0.128
ElecMinimize: Iter:   2  F: -1819.240352796091884  |grad|_K:  5.432e-05  alpha:  1.229e-01  linmin: -6.674e-04  t[s]:  34304.56
	FillingsUpdate:  mu: -0.201911147  nElectrons: 338.000000
	SubspaceRotationAdjust: set factor to 0.101
ElecMinimize: Iter:   3  F: -1819.258826157823705  |grad|_K:  3.670e-05  alpha:  1.169e-01  linmin:  3.488e-04  t[s]:  34754.74
	FillingsUpdate:  mu: -0.180476055  nElectrons: 338.000000
	SubspaceRotationAdjust: set factor to 0.0958
ElecMinimize: Iter:   4  F: -1819.274265901245144  |grad|_K:  1.869e-05  alpha:  2.164e-01  linmin: -8.833e-05  t[s]:  35205.93
	FillingsUpdate:  mu: -0.180522647  nElectrons: 338.000000
	SubspaceRotationAdjust: set factor to 0.0745
ElecMinimize: Iter:   5  F: -1819.276982303497334  |grad|_K:  1.198e-05  alpha:  1.457e-01  linmin:  1.735e-06  t[s]:  35655.93
	FillingsUpdate:  mu: -0.184702501  nElectrons: 338.000000
	SubspaceRotationAdjust: set factor to 0.0642
ElecMinimize: Iter:   6  F: -1819.279530403351373  |grad|_K:  1.004e-05  alpha:  3.333e-01  linmin: -7.913e-06  t[s]:  36109.17
	FillingsUpdate:  mu: -0.187120170  nElectrons: 338.000000
	SubspaceRotationAdjust: set factor to 0.0604
ElecMinimize: Iter:   7  F: -1819.280846660353291  |grad|_K:  8.447e-06  alpha:  2.445e-01  linmin:  1.132e-05  t[s]:  36562.80
	FillingsUpdate:  mu: -0.184004091  nElectrons: 338.000000
	SubspaceRotationAdjust: set factor to 0.0618
ElecMinimize: Iter:   8  F: -1819.282492891503807  |grad|_K:  8.902e-06  alpha:  4.338e-01  linmin:  2.810e-05  t[s]:  37012.44
	FillingsUpdate:  mu: -0.182218426  nElectrons: 338.000000
	SubspaceRotationAdjust: set factor to 0.0599
ElecMinimize: Iter:   9  F: -1819.283759896736910  |grad|_K:  8.106e-06  alpha:  3.015e-01  linmin: -3.873e-06  t[s]:  37465.51
	FillingsUpdate:  mu: -0.180695354  nElectrons: 338.000000
	SubspaceRotationAdjust: set factor to 0.0711
ElecMinimize: Iter:  10  F: -1819.285288913525392  |grad|_K:  8.750e-06  alpha:  4.362e-01  linmin: -2.562e-05  t[s]:  37919.42
	FillingsUpdate:  mu: -0.180793585  nElectrons: 338.000000
	SubspaceRotationAdjust: set factor to 0.0635
ElecMinimize: Iter:  11  F: -1819.286702487554976  |grad|_K:  8.882e-06  alpha:  3.442e-01  linmin:  2.334e-05  t[s]:  38369.88
	FillingsUpdate:  mu: -0.181193869  nElectrons: 338.000000
	SubspaceRotationAdjust: set factor to 0.0856
ElecMinimize: Iter:  12  F: -1819.288297826322150  |grad|_K:  7.611e-06  alpha:  3.809e-01  linmin: -1.839e-06  t[s]:  38823.13
	FillingsUpdate:  mu: -0.181583185  nElectrons: 338.000000
	SubspaceRotationAdjust: set factor to 0.0721
ElecMinimize: Iter:  13  F: -1819.289195785911716  |grad|_K:  6.598e-06  alpha:  2.918e-01  linmin: -1.559e-05  t[s]:  39277.18
	FillingsUpdate:  mu: -0.182451733  nElectrons: 338.000000
	SubspaceRotationAdjust: set factor to 0.0915
ElecMinimize: Iter:  14  F: -1819.289932932894089  |grad|_K:  4.124e-06  alpha:  3.174e-01  linmin:  2.336e-05  t[s]:  39728.03
	FillingsUpdate:  mu: -0.182838091  nElectrons: 338.000000
	SubspaceRotationAdjust: set factor to 0.085
ElecMinimize: Iter:  15  F: -1819.290241255677302  |grad|_K:  3.647e-06  alpha:  3.412e-01  linmin:  1.712e-05  t[s]:  40176.38
	FillingsUpdate:  mu: -0.183347900  nElectrons: 338.000000
	SubspaceRotationAdjust: set factor to 0.072
ElecMinimize: Iter:  16  F: -1819.290402322851605  |grad|_K:  2.121e-06  alpha:  2.278e-01  linmin: -1.133e-07  t[s]:  40625.49
	FillingsUpdate:  mu: -0.183554868  nElectrons: 338.000000
	SubspaceRotationAdjust: set factor to 0.0915
ElecMinimize: Iter:  17  F: -1819.290497431948779  |grad|_K:  1.573e-06  alpha:  3.969e-01  linmin: -2.452e-06  t[s]:  41080.31
	FillingsUpdate:  mu: -0.183684241  nElectrons: 338.000000
	SubspaceRotationAdjust: set factor to 0.0759
ElecMinimize: Iter:  18  F: -1819.290536151303741  |grad|_K:  1.254e-06  alpha:  2.936e-01  linmin:  2.699e-07  t[s]:  41532.61
	FillingsUpdate:  mu: -0.183879957  nElectrons: 338.000000
	SubspaceRotationAdjust: set factor to 0.0813
ElecMinimize: Iter:  19  F: -1819.290563304907209  |grad|_K:  7.907e-07  alpha:  3.242e-01  linmin: -3.053e-06  t[s]:  41986.94
	FillingsUpdate:  mu: -0.183981298  nElectrons: 338.000000
	SubspaceRotationAdjust: set factor to 0.101
ElecMinimize: Iter:  20  F: -1819.290577767519835  |grad|_K:  6.523e-07  alpha:  4.342e-01  linmin:  2.130e-07  t[s]:  42444.56
	FillingsUpdate:  mu: -0.184065744  nElectrons: 338.000000
	SubspaceRotationAdjust: set factor to 0.095
ElecMinimize: Iter:  21  F: -1819.290586660545614  |grad|_K:  6.711e-07  alpha:  3.924e-01  linmin:  1.216e-06  t[s]:  42897.61
	FillingsUpdate:  mu: -0.184143194  nElectrons: 338.000000
	SubspaceRotationAdjust: set factor to 0.0875
ElecMinimize: Iter:  22  F: -1819.290594382516701  |grad|_K:  5.710e-07  alpha:  3.220e-01  linmin: -1.158e-06  t[s]:  43349.97
	FillingsUpdate:  mu: -0.184133096  nElectrons: 338.000000
	SubspaceRotationAdjust: set factor to 0.103
ElecMinimize: Iter:  23  F: -1819.290603947342561  |grad|_K:  5.238e-07  alpha:  5.507e-01  linmin:  7.569e-07  t[s]:  43799.73
	FillingsUpdate:  mu: -0.184067690  nElectrons: 338.000000
	SubspaceRotationAdjust: set factor to 0.108
ElecMinimize: Iter:  24  F: -1819.290611857786416  |grad|_K:  4.967e-07  alpha:  5.414e-01  linmin:  6.304e-07  t[s]:  44246.50
	FillingsUpdate:  mu: -0.184067856  nElectrons: 338.000000
	SubspaceRotationAdjust: set factor to 0.0852
ElecMinimize: Iter:  25  F: -1819.290616024843530  |grad|_K:  4.555e-07  alpha:  3.172e-01  linmin:  2.570e-07  t[s]:  44698.85
	FillingsUpdate:  mu: -0.184076464  nElectrons: 338.000000
	SubspaceRotationAdjust: set factor to 0.0697
ElecMinimize: Iter:  26  F: -1819.290619036658882  |grad|_K:  2.952e-07  alpha:  2.725e-01  linmin:  1.746e-07  t[s]:  45154.21
	FillingsUpdate:  mu: -0.184076282  nElectrons: 338.000000
	SubspaceRotationAdjust: set factor to 0.0854
ElecMinimize: Iter:  27  F: -1819.290620922768994  |grad|_K:  1.937e-07  alpha:  4.066e-01  linmin:  6.449e-06  t[s]:  45605.52
	FillingsUpdate:  mu: -0.184064135  nElectrons: 338.000000
	SubspaceRotationAdjust: set factor to 0.0833
ElecMinimize: Iter:  28  F: -1819.290621705677950  |grad|_K:  1.526e-07  alpha:  3.920e-01  linmin: -1.370e-06  t[s]:  46053.11
	FillingsUpdate:  mu: -0.184056737  nElectrons: 338.000000
	SubspaceRotationAdjust: set factor to 0.0715
ElecMinimize: Iter:  29  F: -1819.290622075190186  |grad|_K:  1.122e-07  alpha:  2.980e-01  linmin:  3.922e-06  t[s]:  46505.18
	FillingsUpdate:  mu: -0.184059967  nElectrons: 338.000000
	SubspaceRotationAdjust: set factor to 0.0792
ElecMinimize: Iter:  30  F: -1819.290622334252930  |grad|_K:  8.157e-08  alpha:  3.864e-01  linmin: -8.662e-06  t[s]:  46949.69
	FillingsUpdate:  mu: -0.184066524  nElectrons: 338.000000
	SubspaceRotationAdjust: set factor to 0.0969
ElecMinimize: Iter:  31  F: -1819.290622499747315  |grad|_K:  6.593e-08  alpha:  4.650e-01  linmin: -1.061e-05  t[s]:  47398.52
	FillingsUpdate:  mu: -0.184072803  nElectrons: 338.000000
	SubspaceRotationAdjust: set factor to 0.0934
ElecMinimize: Iter:  32  F: -1819.290622598909295  |grad|_K:  6.449e-08  alpha:  4.247e-01  linmin: -4.880e-06  t[s]:  47851.92
	FillingsUpdate:  mu: -0.184079153  nElectrons: 338.000000
	SubspaceRotationAdjust: set factor to 0.078
ElecMinimize: Iter:  33  F: -1819.290622665457477  |grad|_K:  5.164e-08  alpha:  3.003e-01  linmin: -1.012e-05  t[s]:  48299.06
	FillingsUpdate:  mu: -0.184083015  nElectrons: 338.000000
	SubspaceRotationAdjust: set factor to 0.0895
ElecMinimize: Iter:  34  F: -1819.290622729245115  |grad|_K:  4.017e-08  alpha:  4.493e-01  linmin:  1.141e-07  t[s]:  48752.57
	FillingsUpdate:  mu: -0.184085014  nElectrons: 338.000000
	SubspaceRotationAdjust: set factor to 0.103
ElecMinimize: Iter:  35  F: -1819.290622772331062  |grad|_K:  3.250e-08  alpha:  4.963e-01  linmin: -1.465e-06  t[s]:  49203.78
	FillingsUpdate:  mu: -0.184085364  nElectrons: 338.000000
	SubspaceRotationAdjust: set factor to 0.104
ElecMinimize: Iter:  36  F: -1819.290622795151648  |grad|_K:  3.006e-08  alpha:  4.121e-01  linmin: -1.248e-05  t[s]:  49656.98
	FillingsUpdate:  mu: -0.184083132  nElectrons: 338.000000
	SubspaceRotationAdjust: set factor to 0.0881
ElecMinimize: Iter:  37  F: -1819.290622809940942  |grad|_K:  2.800e-08  alpha:  3.166e-01  linmin:  2.516e-05  t[s]:  50110.54
	FillingsUpdate:  mu: -0.184079624  nElectrons: 338.000000
	SubspaceRotationAdjust: set factor to 0.0866
ElecMinimize: Iter:  38  F: -1819.290622826512390  |grad|_K:  2.278e-08  alpha:  4.109e-01  linmin:  2.696e-05  t[s]:  50562.55
	FillingsUpdate:  mu: -0.184077735  nElectrons: 338.000000
	SubspaceRotationAdjust: set factor to 0.095
ElecMinimize: Iter:  39  F: -1819.290622838216223  |grad|_K:  1.661e-08  alpha:  4.447e-01  linmin: -1.448e-05  t[s]:  51014.29
	FillingsUpdate:  mu: -0.184076333  nElectrons: 338.000000
	SubspaceRotationAdjust: set factor to 0.107
ElecMinimize: Iter:  40  F: -1819.290622845270946  |grad|_K:  1.249e-08  alpha:  4.476e-01  linmin:  1.411e-06  t[s]:  51463.17
	FillingsUpdate:  mu: -0.184074651  nElectrons: 338.000000
	SubspaceRotationAdjust: set factor to 0.101
ElecMinimize: Iter:  41  F: -1819.290622847667464  |grad|_K:  9.954e-09  alpha:  3.461e-01  linmin: -6.952e-05  t[s]:  51917.69
ElecMinimize: Converged (|Delta F|<1.000000e-08 for 2 iters).
Setting wave functions to eigenvectors of Hamiltonian

# Ionic positions in lattice coordinates:
ion H   0.611573602869227   0.616414592803167   0.315083340994523 1
ion H   0.166850183286183   0.430657879663250   0.315001429735042 1
ion C   0.497229409946439   0.498583822031893   0.314647098461802 1
ion O   0.560958383984519   0.350162526872909   0.315132275359959 1
ion O   0.263141271959727   0.539218836633191   0.315278106364549 1
ion Pt   0.000000000000000   0.000000000000000  -0.155941670000000 0
ion Pt   0.500000000000000   0.500000000000000  -0.155941670000000 0
ion Pt   0.000000000000000   0.500000000000000  -0.155941670000000 0
ion Pt   0.500000000000000   0.000000000000000  -0.155941670000000 0
ion Pt   0.750000000000000   0.250000000000000  -0.077970830000000 0
ion Pt   0.250000000000000   0.750000000000000  -0.077970830000000 0
ion Pt   0.250000000000000   0.250000000000000  -0.077970830000000 0
ion Pt   0.750000000000000   0.750000000000000  -0.077970830000000 0
ion Pt   0.500004571253563   0.000006188983350   0.000003340728386 1
ion Pt  -0.000000957049790  -0.000007640818269  -0.000006279897446 1
ion Pt  -0.000015205948251   0.499996176211123   0.000003794681088 1
ion Pt   0.499983411404216   0.500031895943914   0.000021052940627 1
ion Pt   0.750052693110723   0.249960228859194   0.079299976953283 1
ion Pt   0.249985500577791   0.750034001509602   0.079305429763820 1
ion Pt   0.249951106339882   0.249933793760837   0.079298199434722 1
ion Pt   0.750012528700496   0.750055847695618   0.079308912568589 1
ion Pt  -0.000000660242162   0.000010717534448   0.156112618909748 1
ion Pt   0.000000067626372   0.500021884213792   0.156014410025007 1
ion Pt   0.500001407734060   0.000018599822265   0.156109451986507 1
ion Pt   0.500258525289527   0.499898171587205   0.156127311927451 1


# Forces in Lattice coordinates:
force H  -0.004053982809976  -0.064736951066966   0.054084643290512 1
force H   0.078759800948435   0.072130677353525  -0.006328092794967 1
force C  -0.064014117259873  -0.076085956387352  -0.274363363865167 1
force O   0.181756125493552  -0.068558049134833   0.104851639251813 1
force O  -0.220058930275048   0.148013654389100   0.264218980231696 1
force Pt  -0.000042619879572  -0.000350916168857  -0.157304381366222 0
force Pt   0.001072218373787  -0.000028992540056  -0.158295893787340 0
force Pt  -0.001021574413206  -0.000408356015430  -0.154972338898100 0
force Pt   0.000090863495819   0.000024034675105  -0.156475509632424 0
force Pt  -0.000680491707636   0.001147938527511  -1.232364922104075 0
force Pt   0.000382606571288  -0.000485569730818  -1.229905831725662 0
force Pt   0.000801939789512   0.000853664610822  -1.229458045782664 0
force Pt  -0.000375698761187  -0.000007050507855  -1.225820795625349 0
force Pt   0.000351382643049   0.001093549443731   0.044390499476682 1
force Pt  -0.000133350088997  -0.001430036506880   0.035979980400825 1
force Pt  -0.001362370556175  -0.000546405165113   0.038793982455224 1
force Pt  -0.002098497522593   0.005853396563276   0.061978359410433 1
force Pt   0.004768657593094  -0.008911924829938   1.130723718120124 1
force Pt  -0.000468524703632   0.005737188176090   1.141947123622579 1
force Pt  -0.003966545360678  -0.012540896966600   1.134099628419802 1
force Pt   0.000892973462134   0.012008978927904   1.144037992936323 1
force Pt  -0.000036908176928   0.001854536195010   0.192077475744263 1
force Pt   0.000655439752972   0.002383947975833   0.106327769468141 1
force Pt   0.000196146426384   0.004174740000289   0.188977351718884 1
force Pt   0.027379710914026  -0.020545234418945   0.205869934291584 1

# Energy components:
   Eewald =   -12209.1708214001828310
       EH =   -10670.1312800911073282
     Eloc =    20737.3275819667760516
      Enl =      -15.5659735277142772
      Exc =     -576.0413671947644616
 Exc_core =      324.9917631280862338
       KE =      589.5397900972095613
-------------------------------------
     Etot =    -1819.0503070216948345
       TS =        0.2403158259726713
-------------------------------------
        F =    -1819.2906228476674642

IonicMinimize: Iter:   1  F: -1819.290622847667464  |grad|_K:  1.136e-02  alpha:  1.000e+00  linmin: -5.443e-01  t[s]:  51990.02

#--- Lowdin population analysis ---
# oxidation-state H +0.216 +0.422
# oxidation-state C +0.408
# oxidation-state O -0.316 -0.368
# oxidation-state Pt +0.068 +0.068 +0.069 +0.068 -0.045 -0.045 -0.045 -0.045 +0.015 +0.015 +0.014 +0.013 -0.039 -0.041 -0.044 -0.046 +0.059 +0.009 +0.060 -0.024


-------- Electronic minimization -----------
	FillingsUpdate:  mu: -0.004381527  nElectrons: 338.000000
ElecMinimize: Iter:   0  F: -1817.488543034679878  |grad|_K:  3.459e-04  alpha:  1.000e+00
	FillingsUpdate:  mu: -0.072498396  nElectrons: 338.000000
	SubspaceRotationAdjust: set factor to 0.0623
ElecMinimize: Iter:   1  F: -1818.760383567214149  |grad|_K:  2.147e-04  alpha:  2.289e-01  linmin:  2.503e-02  t[s]:  52784.83
	FillingsUpdate:  mu: -0.212386086  nElectrons: 338.000000
	SubspaceRotationAdjust: set factor to 0.104
ElecMinimize: Iter:   2  F: -1819.139771146597013  |grad|_K:  5.900e-05  alpha:  1.750e-01  linmin: -1.754e-04  t[s]:  53231.08
	FillingsUpdate:  mu: -0.185749690  nElectrons: 338.000000
	SubspaceRotationAdjust: set factor to 0.0876
ElecMinimize: Iter:   3  F: -1819.198811221623373  |grad|_K:  3.654e-05  alpha:  3.185e-01  linmin:  4.314e-04  t[s]:  53682.32
	FillingsUpdate:  mu: -0.182982647  nElectrons: 338.000000
	SubspaceRotationAdjust: set factor to 0.0756
ElecMinimize: Iter:   4  F: -1819.212194271553699  |grad|_K:  2.314e-05  alpha:  1.886e-01  linmin: -7.227e-06  t[s]:  54133.86
	FillingsUpdate:  mu: -0.180475838  nElectrons: 338.000000
	SubspaceRotationAdjust: set factor to 0.111
ElecMinimize: Iter:   5  F: -1819.228071673822342  |grad|_K:  2.224e-05  alpha:  5.571e-01  linmin:  2.879e-05  t[s]:  54589.95
	FillingsUpdate:  mu: -0.172810680  nElectrons: 338.000000
	SubspaceRotationAdjust: set factor to 0.0733
ElecMinimize: Iter:   6  F: -1819.242905413665767  |grad|_K:  3.246e-05  alpha:  5.642e-01  linmin:  2.775e-04  t[s]:  55040.29
	FillingsUpdate:  mu: -0.182583645  nElectrons: 338.000000
	SubspaceRotationAdjust: set factor to 0.072
ElecMinimize: Iter:   7  F: -1819.257025474502370  |grad|_K:  2.349e-05  alpha:  2.693e-01  linmin:  1.982e-04  t[s]:  55489.77
	FillingsUpdate:  mu: -0.177663801  nElectrons: 338.000000
	SubspaceRotationAdjust: set factor to 0.0801
ElecMinimize: Iter:   8  F: -1819.275843869404980  |grad|_K:  2.231e-05  alpha:  6.505e-01  linmin: -9.776e-05  t[s]:  55940.23
	FillingsUpdate:  mu: -0.174031046  nElectrons: 338.000000
	SubspaceRotationAdjust: set factor to 0.0665
ElecMinimize: Iter:   9  F: -1819.287550690003172  |grad|_K:  2.367e-05  alpha:  4.243e-01  linmin: -2.276e-05  t[s]:  56391.80
	FillingsUpdate:  mu: -0.185185178  nElectrons: 338.000000
	SubspaceRotationAdjust: set factor to 0.0694
ElecMinimize: Iter:  10  F: -1819.296679605828785  |grad|_K:  1.401e-05  alpha:  3.084e-01  linmin: -3.454e-05  t[s]:  56842.61
	FillingsUpdate:  mu: -0.185561053  nElectrons: 338.000000
	SubspaceRotationAdjust: set factor to 0.0719
ElecMinimize: Iter:  11  F: -1819.300687824719944  |grad|_K:  9.230e-06  alpha:  3.815e-01  linmin: -4.971e-05  t[s]:  57293.96
	FillingsUpdate:  mu: -0.184788552  nElectrons: 338.000000
	SubspaceRotationAdjust: set factor to 0.0539
ElecMinimize: Iter:  12  F: -1819.302038425316368  |grad|_K:  6.839e-06  alpha:  2.965e-01  linmin:  1.305e-05  t[s]:  57753.11
	FillingsUpdate:  mu: -0.184504195  nElectrons: 338.000000
	SubspaceRotationAdjust: set factor to 0.067
ElecMinimize: Iter:  13  F: -1819.302874737562888  |grad|_K:  3.795e-06  alpha:  3.359e-01  linmin: -2.828e-05  t[s]:  58208.37
	FillingsUpdate:  mu: -0.185124393  nElectrons: 338.000000
	SubspaceRotationAdjust: set factor to 0.0743
ElecMinimize: Iter:  14  F: -1819.303182284241302  |grad|_K:  2.867e-06  alpha:  4.004e-01  linmin: -1.053e-05  t[s]:  58662.57
	FillingsUpdate:  mu: -0.185578728  nElectrons: 338.000000
	SubspaceRotationAdjust: set factor to 0.0704
ElecMinimize: Iter:  15  F: -1819.303332330751346  |grad|_K:  2.378e-06  alpha:  3.427e-01  linmin:  9.370e-07  t[s]:  59119.74
	FillingsUpdate:  mu: -0.185716641  nElectrons: 338.000000
	SubspaceRotationAdjust: set factor to 0.0811
ElecMinimize: Iter:  16  F: -1819.303476312681596  |grad|_K:  2.049e-06  alpha:  4.778e-01  linmin: -8.713e-06  t[s]:  59567.45
	FillingsUpdate:  mu: -0.185594790  nElectrons: 338.000000
	SubspaceRotationAdjust: set factor to 0.0972
ElecMinimize: Iter:  17  F: -1819.303583567235137  |grad|_K:  1.876e-06  alpha:  4.792e-01  linmin: -1.341e-06  t[s]:  60022.94
	FillingsUpdate:  mu: -0.185501765  nElectrons: 338.000000
	SubspaceRotationAdjust: set factor to 0.0922
ElecMinimize: Iter:  18  F: -1819.303670234745368  |grad|_K:  2.034e-06  alpha:  4.625e-01  linmin:  4.956e-06  t[s]:  60481.43
	FillingsUpdate:  mu: -0.185446379  nElectrons: 338.000000
	SubspaceRotationAdjust: set factor to 0.076
ElecMinimize: Iter:  19  F: -1819.303738202272598  |grad|_K:  1.685e-06  alpha:  3.088e-01  linmin: -2.333e-10  t[s]:  60935.56
	FillingsUpdate:  mu: -0.185210377  nElectrons: 338.000000
	SubspaceRotationAdjust: set factor to 0.0895
ElecMinimize: Iter:  20  F: -1819.303807294753824  |grad|_K:  1.236e-06  alpha:  4.567e-01  linmin:  6.873e-06  t[s]:  61388.57
	FillingsUpdate:  mu: -0.185048007  nElectrons: 338.000000
	SubspaceRotationAdjust: set factor to 0.0988
ElecMinimize: Iter:  21  F: -1819.303849770794159  |grad|_K:  1.086e-06  alpha:  5.227e-01  linmin:  4.529e-06  t[s]:  61838.18
	FillingsUpdate:  mu: -0.184966654  nElectrons: 338.000000
	SubspaceRotationAdjust: set factor to 0.0839
ElecMinimize: Iter:  22  F: -1819.303870504406405  |grad|_K:  9.757e-07  alpha:  3.304e-01  linmin:  5.446e-07  t[s]:  62288.11
	FillingsUpdate:  mu: -0.184888380  nElectrons: 338.000000
	SubspaceRotationAdjust: set factor to 0.0727
ElecMinimize: Iter:  23  F: -1819.303886537643393  |grad|_K:  6.967e-07  alpha:  3.162e-01  linmin:  4.049e-06  t[s]:  62743.99
	FillingsUpdate:  mu: -0.184880311  nElectrons: 338.000000
	SubspaceRotationAdjust: set factor to 0.0881
ElecMinimize: Iter:  24  F: -1819.303897302148471  |grad|_K:  4.940e-07  alpha:  4.165e-01  linmin:  1.065e-07  t[s]:  63196.88
	FillingsUpdate:  mu: -0.184889534  nElectrons: 338.000000
	SubspaceRotationAdjust: set factor to 0.0956
ElecMinimize: Iter:  25  F: -1819.303903327769831  |grad|_K:  4.032e-07  alpha:  4.635e-01  linmin: -1.189e-06  t[s]:  63645.19
	FillingsUpdate:  mu: -0.184914260  nElectrons: 338.000000
	SubspaceRotationAdjust: set factor to 0.0843
ElecMinimize: Iter:  26  F: -1819.303906502350628  |grad|_K:  3.707e-07  alpha:  3.666e-01  linmin: -2.395e-06  t[s]:  64098.79
	FillingsUpdate:  mu: -0.184979582  nElectrons: 338.000000
	SubspaceRotationAdjust: set factor to 0.0752
ElecMinimize: Iter:  27  F: -1819.303908669965267  |grad|_K:  2.542e-07  alpha:  2.960e-01  linmin: -2.129e-06  t[s]:  64554.30
	FillingsUpdate:  mu: -0.185068508  nElectrons: 338.000000
	SubspaceRotationAdjust: set factor to 0.0894
ElecMinimize: Iter:  28  F: -1819.303910227204597  |grad|_K:  1.997e-07  alpha:  4.524e-01  linmin:  2.038e-06  t[s]:  65004.25
	FillingsUpdate:  mu: -0.185134388  nElectrons: 338.000000
	SubspaceRotationAdjust: set factor to 0.103
ElecMinimize: Iter:  29  F: -1819.303911287645178  |grad|_K:  1.655e-07  alpha:  4.990e-01  linmin: -1.054e-05  t[s]:  65455.93
	FillingsUpdate:  mu: -0.185176700  nElectrons: 338.000000
	SubspaceRotationAdjust: set factor to 0.0918
ElecMinimize: Iter:  30  F: -1819.303911837003852  |grad|_K:  1.637e-07  alpha:  3.763e-01  linmin: -5.236e-07  t[s]:  65907.72
	FillingsUpdate:  mu: -0.185213196  nElectrons: 338.000000
	SubspaceRotationAdjust: set factor to 0.0786
ElecMinimize: Iter:  31  F: -1819.303912254773650  |grad|_K:  1.244e-07  alpha:  2.929e-01  linmin:  6.924e-06  t[s]:  66360.25
	FillingsUpdate:  mu: -0.185252694  nElectrons: 338.000000
	SubspaceRotationAdjust: set factor to 0.0911
ElecMinimize: Iter:  32  F: -1819.303912650897701  |grad|_K:  9.606e-08  alpha:  4.796e-01  linmin: -2.974e-05  t[s]:  66811.63
	FillingsUpdate:  mu: -0.185264382  nElectrons: 338.000000
	SubspaceRotationAdjust: set factor to 0.105
ElecMinimize: Iter:  33  F: -1819.303912877137236  |grad|_K:  7.821e-08  alpha:  4.595e-01  linmin:  1.159e-05  t[s]:  67264.32
	FillingsUpdate:  mu: -0.185258246  nElectrons: 338.000000
	SubspaceRotationAdjust: set factor to 0.0986
ElecMinimize: Iter:  34  F: -1819.303913010630822  |grad|_K:  7.468e-08  alpha:  4.113e-01  linmin:  2.022e-05  t[s]:  67715.70
	FillingsUpdate:  mu: -0.185249672  nElectrons: 338.000000
	SubspaceRotationAdjust: set factor to 0.0783
ElecMinimize: Iter:  35  F: -1819.303913091450568  |grad|_K:  5.936e-08  alpha:  2.708e-01  linmin:  1.518e-05  t[s]:  68166.52
	FillingsUpdate:  mu: -0.185236805  nElectrons: 338.000000
	SubspaceRotationAdjust: set factor to 0.0877
ElecMinimize: Iter:  36  F: -1819.303913164800178  |grad|_K:  3.912e-08  alpha:  3.882e-01  linmin: -7.474e-05  t[s]:  68620.53
	FillingsUpdate:  mu: -0.185228576  nElectrons: 338.000000
	SubspaceRotationAdjust: set factor to 0.102
ElecMinimize: Iter:  37  F: -1819.303913204683795  |grad|_K:  3.171e-08  alpha:  4.919e-01  linmin:  8.587e-05  t[s]:  69069.93
	FillingsUpdate:  mu: -0.185221030  nElectrons: 338.000000
	SubspaceRotationAdjust: set factor to 0.0967
ElecMinimize: Iter:  38  F: -1819.303913225322049  |grad|_K:  2.933e-08  alpha:  3.905e-01  linmin: -1.823e-05  t[s]:  69513.90
	FillingsUpdate:  mu: -0.185213090  nElectrons: 338.000000
	SubspaceRotationAdjust: set factor to 0.0805
ElecMinimize: Iter:  39  F: -1819.303913238228006  |grad|_K:  2.246e-08  alpha:  2.772e-01  linmin:  5.503e-05  t[s]:  69967.58
	FillingsUpdate:  mu: -0.185204634  nElectrons: 338.000000
	SubspaceRotationAdjust: set factor to 0.0904
ElecMinimize: Iter:  40  F: -1819.303913249397965  |grad|_K:  1.800e-08  alpha:  4.154e-01  linmin:  2.381e-05  t[s]:  70419.63
	FillingsUpdate:  mu: -0.185199691  nElectrons: 338.000000
	SubspaceRotationAdjust: set factor to 0.111
ElecMinimize: Iter:  41  F: -1819.303913257060685  |grad|_K:  1.454e-08  alpha:  4.811e-01  linmin: -1.952e-04  t[s]:  70869.65
	FillingsUpdate:  mu: -0.185199104  nElectrons: 338.000000
	SubspaceRotationAdjust: set factor to 0.111
ElecMinimize: Iter:  42  F: -1819.303913263631785  |grad|_K:  1.700e-08  alpha:  5.688e-01  linmin:  3.041e-04  t[s]:  71326.55
ElecMinimize: Converged (|Delta F|<1.000000e-08 for 2 iters).
Setting wave functions to eigenvectors of Hamiltonian

# Ionic positions in lattice coordinates:
ion H   0.611853942464131   0.616072495778098   0.315246169058378 1
ion H   0.167595219551729   0.429874256087073   0.314989304999951 1
ion C   0.494328486027465   0.497002539789032   0.313864384261424 1
ion O   0.566154332374221   0.349009407105972   0.315429795121494 1
ion O   0.259156847929243   0.543201870932856   0.315993627323082 1
ion Pt   0.000000000000000   0.000000000000000  -0.155941670000000 0
ion Pt   0.500000000000000   0.500000000000000  -0.155941670000000 0
ion Pt   0.000000000000000   0.500000000000000  -0.155941670000000 0
ion Pt   0.500000000000000   0.000000000000000  -0.155941670000000 0
ion Pt   0.750000000000000   0.250000000000000  -0.077970830000000 0
ion Pt   0.250000000000000   0.750000000000000  -0.077970830000000 0
ion Pt   0.250000000000000   0.250000000000000  -0.077970830000000 0
ion Pt   0.750000000000000   0.750000000000000  -0.077970830000000 0
ion Pt   0.500013905142899   0.000020140587411   0.000096676618866 1
ion Pt  -0.000004017447716  -0.000025605009729   0.000063803983724 1
ion Pt  -0.000049835358811   0.499988752019662   0.000085905437294 1
ion Pt   0.499934304222530   0.500105811141527   0.000161522166322 1
ion Pt   0.750173575799379   0.249853137562749   0.082448152482444 1
ion Pt   0.249967848483942   0.750108145977994   0.082480058546244 1
ion Pt   0.249847419644801   0.249776750567280   0.082452214595423 1
ion Pt   0.750036813856429   0.750201552371198   0.082489997790327 1
ion Pt  -0.000001752214691   0.000034515234608   0.156613432552537 1
ion Pt   0.000012237699382   0.500057497894206   0.156278081821393 1
ion Pt   0.500005909312216   0.000068747081057   0.156601929868379 1
ion Pt   0.500925315719770   0.499645004376513   0.156665585183399 1


# Forces in Lattice coordinates:
force H  -0.066121914451832  -0.168728855350678   0.006421769257145 1
force H   0.080183139499525   0.273006852630862   0.021020019271064 1
force C   0.086924508236797   0.065124928600313  -0.152809138873799 1
force O  -0.020835191119944   0.175390837965429   0.050521125772277 1
force O  -0.107774528806853  -0.334173978463433   0.187975788690511 1
force Pt   0.000028454526440  -0.000392711583977  -0.130471330742711 0
force Pt   0.001214586929106  -0.000244026791742  -0.130066577189693 0
force Pt  -0.001087917844724  -0.000369594098270  -0.124629932342910 0
force Pt   0.000086255127978   0.000044582849608  -0.127279700560306 0
force Pt  -0.001484828210192   0.002240182339621  -1.023067060713879 0
force Pt   0.000517114047139  -0.000770501320225  -1.019581226859749 0
force Pt   0.001388297403700   0.001791425908568  -1.019171907973773 0
force Pt  -0.000781538136303  -0.000489909645686  -1.015792140593557 0
force Pt   0.000044671956177   0.000285310529203   0.120237364059219 1
force Pt  -0.000115754077792  -0.001113772290479   0.114852218834724 1
force Pt  -0.001136532106580  -0.000089638142634   0.108113314537885 1
force Pt  -0.002519341531381   0.004103867683860   0.136051415237836 1
force Pt   0.002723272718666  -0.009661652893347   0.745402771553074 1
force Pt   0.002743454121188   0.002189581615652   0.764438274135847 1
force Pt  -0.000489024331717  -0.008210310688319   0.754705436758886 1
force Pt  -0.000619263415176   0.011399017011737   0.762470641916744 1
force Pt   0.000151787819687   0.000235643772311   0.238528805445898 1
force Pt   0.004771060570768   0.001038535638301   0.175716416724732 1
force Pt   0.000153085252779   0.004326037486388   0.235480026352988 1
force Pt   0.021982775804866  -0.016183474382213   0.282796968418441 1

# Energy components:
   Eewald =   -12248.3837132869139168
       EH =   -10709.5070898949688853
     Eloc =    20816.0582330344877846
      Enl =      -15.5975559360709592
      Exc =     -575.9644119114203704
 Exc_core =      324.9917500458132054
       KE =      589.3391129937253936
-------------------------------------
     Etot =    -1819.0636749553477785
       TS =        0.2402383082838947
-------------------------------------
        F =    -1819.3039132636317845

IonicMinimize: Iter:   2  F: -1819.303913263631785  |grad|_K:  8.954e-03  alpha:  8.798e-01  linmin: -4.161e-01  t[s]:  71398.48

#--- Lowdin population analysis ---
# oxidation-state H +0.209 +0.417
# oxidation-state C +0.404
# oxidation-state O -0.313 -0.362
# oxidation-state Pt +0.070 +0.070 +0.071 +0.071 -0.046 -0.046 -0.045 -0.045 +0.013 +0.013 +0.012 +0.010 -0.039 -0.042 -0.045 -0.047 +0.061 +0.012 +0.062 -0.026


-------- Electronic minimization -----------
	FillingsUpdate:  mu: +0.021968393  nElectrons: 338.000000
ElecMinimize: Iter:   0  F: -1817.421440768954881  |grad|_K:  3.686e-04  alpha:  1.000e+00
	FillingsUpdate:  mu: -0.053105941  nElectrons: 338.000000
	SubspaceRotationAdjust: set factor to 0.067
ElecMinimize: Iter:   1  F: -1818.678195313956849  |grad|_K:  2.454e-04  alpha:  2.091e-01  linmin:  2.853e-02  t[s]:  72193.47
	FillingsUpdate:  mu: -0.211794567  nElectrons: 338.000000
	SubspaceRotationAdjust: set factor to 0.142
ElecMinimize: Iter:   2  F: -1819.137545393014761  |grad|_K:  6.463e-05  alpha:  1.692e-01  linmin: -3.552e-04  t[s]:  72647.18
	FillingsUpdate:  mu: -0.187343128  nElectrons: 338.000000
	SubspaceRotationAdjust: set factor to 0.104
ElecMinimize: Iter:   3  F: -1819.202501675194071  |grad|_K:  4.743e-05  alpha:  2.922e-01  linmin:  7.996e-04  t[s]:  73099.78
	FillingsUpdate:  mu: -0.186834533  nElectrons: 338.000000
	SubspaceRotationAdjust: set factor to 0.0842
ElecMinimize: Iter:   4  F: -1819.219433961779941  |grad|_K:  2.432e-05  alpha:  1.418e-01  linmin: -6.470e-05  t[s]:  73549.81
ElecMinimize: 	Predicted alpha/alphaT>3.000000, increasing alphaT to 4.253337e-01.
	FillingsUpdate:  mu: -0.179398353  nElectrons: 338.000000
	SubspaceRotationAdjust: set factor to 0.125
ElecMinimize: Iter:   5  F: -1819.238549915164867  |grad|_K:  2.328e-05  alpha:  6.059e-01  linmin: -5.678e-06  t[s]:  74106.58
	FillingsUpdate:  mu: -0.172755585  nElectrons: 338.000000
	SubspaceRotationAdjust: set factor to 0.0784
ElecMinimize: Iter:   6  F: -1819.254158754427863  |grad|_K:  3.464e-05  alpha:  5.374e-01  linmin:  2.316e-04  t[s]:  74553.65
	FillingsUpdate:  mu: -0.185180511  nElectrons: 338.000000
	SubspaceRotationAdjust: set factor to 0.0731
ElecMinimize: Iter:   7  F: -1819.268538326598900  |grad|_K:  2.360e-05  alpha:  2.420e-01  linmin:  2.596e-04  t[s]:  75001.91
	FillingsUpdate:  mu: -0.179323937  nElectrons: 338.000000
	SubspaceRotationAdjust: set factor to 0.0808
ElecMinimize: Iter:   8  F: -1819.286937267074563  |grad|_K:  2.040e-05  alpha:  6.389e-01  linmin: -9.406e-06  t[s]:  75452.42
	FillingsUpdate:  mu: -0.174888091  nElectrons: 338.000000
	SubspaceRotationAdjust: set factor to 0.0662
ElecMinimize: Iter:   9  F: -1819.298442533131492  |grad|_K:  2.227e-05  alpha:  5.129e-01  linmin:  1.042e-04  t[s]:  75902.12
	FillingsUpdate:  mu: -0.184333389  nElectrons: 338.000000
	SubspaceRotationAdjust: set factor to 0.0503
ElecMinimize: Iter:  10  F: -1819.305910765091539  |grad|_K:  1.426e-05  alpha:  2.930e-01  linmin:  7.134e-05  t[s]:  76354.02
	FillingsUpdate:  mu: -0.186619706  nElectrons: 338.000000
	SubspaceRotationAdjust: set factor to 0.0594
ElecMinimize: Iter:  11  F: -1819.309871950430079  |grad|_K:  8.184e-06  alpha:  3.686e-01  linmin:  2.809e-05  t[s]:  76807.94
	FillingsUpdate:  mu: -0.185417680  nElectrons: 338.000000
	SubspaceRotationAdjust: set factor to 0.0532
ElecMinimize: Iter:  12  F: -1819.311283042228524  |grad|_K:  5.961e-06  alpha:  3.963e-01  linmin:  2.884e-05  t[s]:  77257.36
	FillingsUpdate:  mu: -0.185399384  nElectrons: 338.000000
	SubspaceRotationAdjust: set factor to 0.0477
ElecMinimize: Iter:  13  F: -1819.311918669928673  |grad|_K:  3.595e-06  alpha:  3.364e-01  linmin: -1.789e-05  t[s]:  77706.36
	FillingsUpdate:  mu: -0.186044840  nElectrons: 338.000000
	SubspaceRotationAdjust: set factor to 0.0603
ElecMinimize: Iter:  14  F: -1819.312197160552842  |grad|_K:  2.381e-06  alpha:  4.044e-01  linmin:  4.994e-06  t[s]:  78157.63
	FillingsUpdate:  mu: -0.186255464  nElectrons: 338.000000
	SubspaceRotationAdjust: set factor to 0.0678
ElecMinimize: Iter:  15  F: -1819.312329661862805  |grad|_K:  2.073e-06  alpha:  4.387e-01  linmin:  1.968e-06  t[s]:  78613.35
	FillingsUpdate:  mu: -0.186322912  nElectrons: 338.000000
	SubspaceRotationAdjust: set factor to 0.0718
ElecMinimize: Iter:  16  F: -1819.312439623855880  |grad|_K:  1.850e-06  alpha:  4.804e-01  linmin: -9.466e-06  t[s]:  79064.46
	FillingsUpdate:  mu: -0.186443294  nElectrons: 338.000000
	SubspaceRotationAdjust: set factor to 0.076
ElecMinimize: Iter:  17  F: -1819.312525752740157  |grad|_K:  1.742e-06  alpha:  4.720e-01  linmin:  1.945e-06  t[s]:  79514.31
	FillingsUpdate:  mu: -0.186548052  nElectrons: 338.000000
	SubspaceRotationAdjust: set factor to 0.0862
ElecMinimize: Iter:  18  F: -1819.312613653482686  |grad|_K:  1.646e-06  alpha:  5.437e-01  linmin: -4.044e-06  t[s]:  79965.11
	FillingsUpdate:  mu: -0.186278322  nElectrons: 338.000000
	SubspaceRotationAdjust: set factor to 0.0996
ElecMinimize: Iter:  19  F: -1819.312697715996137  |grad|_K:  1.459e-06  alpha:  5.821e-01  linmin: -4.971e-06  t[s]:  80416.45
	FillingsUpdate:  mu: -0.185968288  nElectrons: 338.000000
	SubspaceRotationAdjust: set factor to 0.0943
ElecMinimize: Iter:  20  F: -1819.312747734065169  |grad|_K:  1.524e-06  alpha:  4.409e-01  linmin:  2.825e-06  t[s]:  80872.71
	FillingsUpdate:  mu: -0.185780475  nElectrons: 338.000000
	SubspaceRotationAdjust: set factor to 0.0756
ElecMinimize: Iter:  21  F: -1819.312784236155494  |grad|_K:  1.202e-06  alpha:  2.953e-01  linmin: -4.582e-08  t[s]:  81323.06
	FillingsUpdate:  mu: -0.185645621  nElectrons: 338.000000
	SubspaceRotationAdjust: set factor to 0.0792
ElecMinimize: Iter:  22  F: -1819.312816326675829  |grad|_K:  9.220e-07  alpha:  4.171e-01  linmin:  7.402e-06  t[s]:  81772.42
	FillingsUpdate:  mu: -0.185618501  nElectrons: 338.000000
	SubspaceRotationAdjust: set factor to 0.0924
ElecMinimize: Iter:  23  F: -1819.312836134892677  |grad|_K:  6.733e-07  alpha:  4.378e-01  linmin:  6.836e-07  t[s]:  82221.57
	FillingsUpdate:  mu: -0.185604116  nElectrons: 338.000000
	SubspaceRotationAdjust: set factor to 0.092
ElecMinimize: Iter:  24  F: -1819.312846550599033  |grad|_K:  5.553e-07  alpha:  4.314e-01  linmin: -1.156e-06  t[s]:  82674.33
	FillingsUpdate:  mu: -0.185597375  nElectrons: 338.000000
	SubspaceRotationAdjust: set factor to 0.075
ElecMinimize: Iter:  25  F: -1819.312851511570216  |grad|_K:  4.596e-07  alpha:  3.020e-01  linmin:  1.588e-07  t[s]:  83131.17
	FillingsUpdate:  mu: -0.185638668  nElectrons: 338.000000
	SubspaceRotationAdjust: set factor to 0.0745
ElecMinimize: Iter:  26  F: -1819.312855373968887  |grad|_K:  3.055e-07  alpha:  3.433e-01  linmin:  1.202e-06  t[s]:  83579.33
	FillingsUpdate:  mu: -0.185710623  nElectrons: 338.000000
	SubspaceRotationAdjust: set factor to 0.0909
ElecMinimize: Iter:  27  F: -1819.312857505104830  |grad|_K:  2.232e-07  alpha:  4.288e-01  linmin:  7.446e-07  t[s]:  84029.53
	FillingsUpdate:  mu: -0.185783604  nElectrons: 338.000000
	SubspaceRotationAdjust: set factor to 0.0972
ElecMinimize: Iter:  28  F: -1819.312858719188398  |grad|_K:  1.966e-07  alpha:  4.575e-01  linmin:  5.095e-06  t[s]:  84485.03
	FillingsUpdate:  mu: -0.185843774  nElectrons: 338.000000
	SubspaceRotationAdjust: set factor to 0.0814
ElecMinimize: Iter:  29  F: -1819.312859354561851  |grad|_K:  1.684e-07  alpha:  3.088e-01  linmin: -2.792e-06  t[s]:  84937.61
	FillingsUpdate:  mu: -0.185905003  nElectrons: 338.000000
	SubspaceRotationAdjust: set factor to 0.0794
ElecMinimize: Iter:  30  F: -1819.312859872190074  |grad|_K:  1.198e-07  alpha:  3.424e-01  linmin:  4.098e-06  t[s]:  85391.06
	FillingsUpdate:  mu: -0.185954626  nElectrons: 338.000000
	SubspaceRotationAdjust: set factor to 0.0933
ElecMinimize: Iter:  31  F: -1819.312860234678055  |grad|_K:  9.625e-08  alpha:  4.733e-01  linmin: -2.085e-05  t[s]:  85843.37
	FillingsUpdate:  mu: -0.185985596  nElectrons: 338.000000
	SubspaceRotationAdjust: set factor to 0.107
ElecMinimize: Iter:  32  F: -1819.312860460013553  |grad|_K:  7.802e-08  alpha:  4.562e-01  linmin: -6.762e-08  t[s]:  86294.71
	FillingsUpdate:  mu: -0.185997767  nElectrons: 338.000000
	SubspaceRotationAdjust: set factor to 0.0977
ElecMinimize: Iter:  33  F: -1819.312860583804422  |grad|_K:  7.683e-08  alpha:  3.813e-01  linmin: -1.463e-05  t[s]:  86749.05
	FillingsUpdate:  mu: -0.186002957  nElectrons: 338.000000
	SubspaceRotationAdjust: set factor to 0.0847
ElecMinimize: Iter:  34  F: -1819.312860670333748  |grad|_K:  5.923e-08  alpha:  2.727e-01  linmin: -4.353e-05  t[s]:  87200.34
	FillingsUpdate:  mu: -0.186000443  nElectrons: 338.000000
	SubspaceRotationAdjust: set factor to 0.0961
ElecMinimize: Iter:  35  F: -1819.312860762237960  |grad|_K:  4.662e-08  alpha:  4.838e-01  linmin: -2.047e-04  t[s]:  87654.24
	FillingsUpdate:  mu: -0.185994187  nElectrons: 338.000000
	SubspaceRotationAdjust: set factor to 0.111
ElecMinimize: Iter:  36  F: -1819.312860816454759  |grad|_K:  3.771e-08  alpha:  4.625e-01  linmin:  3.546e-05  t[s]:  88110.21
	FillingsUpdate:  mu: -0.185986041  nElectrons: 338.000000
	SubspaceRotationAdjust: set factor to 0.114
ElecMinimize: Iter:  37  F: -1819.312860849661320  |grad|_K:  3.399e-08  alpha:  4.435e-01  linmin:  1.107e-04  t[s]:  88561.31
	FillingsUpdate:  mu: -0.185979650  nElectrons: 338.000000
	SubspaceRotationAdjust: set factor to 0.092
ElecMinimize: Iter:  38  F: -1819.312860866856454  |grad|_K:  3.074e-08  alpha:  2.750e-01  linmin: -5.185e-05  t[s]:  89011.24
	FillingsUpdate:  mu: -0.185973692  nElectrons: 338.000000
	SubspaceRotationAdjust: set factor to 0.0957
ElecMinimize: Iter:  39  F: -1819.312860881519782  |grad|_K:  1.949e-08  alpha:  2.822e-01  linmin: -3.297e-04  t[s]:  89463.17
	FillingsUpdate:  mu: -0.185968572  nElectrons: 338.000000
	SubspaceRotationAdjust: set factor to 0.124
ElecMinimize: Iter:  40  F: -1819.312860892310937  |grad|_K:  1.588e-08  alpha:  4.728e-01  linmin: -6.901e-04  t[s]:  89913.77
	FillingsUpdate:  mu: -0.185965415  nElectrons: 338.000000
	SubspaceRotationAdjust: set factor to 0.122
ElecMinimize: Iter:  41  F: -1819.312860899435009  |grad|_K:  1.828e-08  alpha:  4.863e-01  linmin:  5.939e-05  t[s]:  90366.24
	FillingsUpdate:  mu: -0.185964285  nElectrons: 338.000000
	SubspaceRotationAdjust: set factor to 0.0949
ElecMinimize: Iter:  42  F: -1819.312860904291256  |grad|_K:  1.605e-08  alpha:  2.387e-01  linmin:  8.888e-05  t[s]:  90818.54
ElecMinimize: Converged (|Delta F|<1.000000e-08 for 2 iters).
Setting wave functions to eigenvectors of Hamiltonian

# Ionic positions in lattice coordinates:
ion H   0.610751269067709   0.614483928047014   0.315327042801735 1
ion H   0.167503799187334   0.430172194560179   0.315068706377029 1
ion C   0.493550866989028   0.496304339769187   0.313155639382238 1
ion O   0.567967987162630   0.350770632003910   0.315670625121394 1
ion O   0.258411687365393   0.543587936089337   0.316721950699597 1
[...]
Setting wave functions to eigenvectors of Hamiltonian

Electronic minimization # 1 changed total free energy by -1.542794e-03 at t[s]:   9671.41

---------------------- Fluid Minimization # 2 -----------------------
FluidMinimize: Iter:   0  G: -0.010456031336924  |grad|_K:  3.441e-04  alpha:  1.000e+00
FluidMinimize: Iter:   1  G: -0.010456031336924  |grad|_K:  3.441e-04  alpha:  5.951e-18  linmin: -1.719e-01  cgtest:  1.000e+00  t[s]:   9672.29
FluidMinimize: Encountered beta<0, resetting CG.
FluidMinimize: Iter:   2  G: -0.010456031336924  |grad|_K:  3.441e-04  alpha:  5.951e-18  linmin: -1.719e-01  cgtest:  1.000e+00  t[s]:   9672.85
FluidMinimize: Encountered beta<0, resetting CG.
FluidMinimize: Converged (|Delta G|<1.000000e-05 for 2 iters).

Fluid minimization # 2 changed total free energy by -1.595946e-16 at t[s]:   9673.16

-------------------- Electronic Minimization # 2 ---------------------
	FillingsUpdate:  mu: -0.173600000  nElectrons: 337.671072
ElecMinimize: Iter:   0  G: -1760.627014793405806  |grad|_K:  6.782e-05  alpha:  1.000e+00
	FillingsUpdate:  mu: -0.173600000  nElectrons: 338.044622
	SubspaceRotationAdjust: set factor to 0.00821
ElecMinimize: Iter:   1  G: -1760.650917066581997  |grad|_K:  1.491e-05  alpha:  1.420e-01  linmin:  1.134e-01  t[s]:  10313.22
	FillingsUpdate:  mu: -0.173600000  nElectrons: 337.979066
	SubspaceRotationAdjust: set factor to 0.0032
ElecMinimize: Iter:   2  G: -1760.653256365444804  |grad|_K:  3.476e-06  alpha:  2.506e-01  linmin:  6.413e-02  t[s]:  10766.24
	FillingsUpdate:  mu: -0.173600000  nElectrons: 337.992625
	SubspaceRotationAdjust: set factor to 0.00592
ElecMinimize: Iter:   3  G: -1760.653445941235077  |grad|_K:  1.654e-06  alpha:  3.187e-01  linmin:  1.570e-02  t[s]:  11216.74
	FillingsUpdate:  mu: -0.173600000  nElectrons: 337.998801
	SubspaceRotationAdjust: set factor to 0.00734
ElecMinimize: Iter:   4  G: -1760.653491012108589  |grad|_K:  7.211e-07  alpha:  3.225e-01  linmin: -2.993e-03  t[s]:  11673.29
	FillingsUpdate:  mu: -0.173600000  nElectrons: 338.002868
	SubspaceRotationAdjust: set factor to 0.00881
ElecMinimize: Iter:   5  G: -1760.653503622973403  |grad|_K:  3.962e-07  alpha:  4.528e-01  linmin:  1.593e-04  t[s]:  12127.29
	FillingsUpdate:  mu: -0.173600000  nElectrons: 338.004705
	SubspaceRotationAdjust: set factor to 0.0111
ElecMinimize: Iter:   6  G: -1760.653507723946177  |grad|_K:  2.811e-07  alpha:  4.907e-01  linmin: -4.217e-05  t[s]:  12579.46
	FillingsUpdate:  mu: -0.173600000  nElectrons: 338.004685
	SubspaceRotationAdjust: set factor to 0.0147
ElecMinimize: Iter:   7  G: -1760.653510531773691  |grad|_K:  2.751e-07  alpha:  6.669e-01  linmin:  3.873e-06  t[s]:  13028.92
ElecMinimize: Converged (|Delta G|<1.000000e-05 for 2 iters).
Setting wave functions to eigenvectors of Hamiltonian

Electronic minimization # 2 changed total free energy by -1.732034e-05 at t[s]:  13048.95

---------------------- Fluid Minimization # 3 -----------------------
FluidMinimize: Iter:   0  G: -0.009994282694068  |grad|_K:  3.771e-04  alpha:  1.000e+00
FluidMinimize: Iter:   1  G: -0.009994282694068  |grad|_K:  3.771e-04  alpha:  4.452e-18  linmin: -1.751e-01  cgtest:  1.000e+00  t[s]:  13049.83
FluidMinimize: Encountered beta<0, resetting CG.
FluidMinimize: 	Step increased G by 3.469447e-18, reducing alpha to 4.452336e-19.
FluidMinimize: 	Step increased G by 5.377643e-17, reducing alpha to 4.452336e-20.
FluidMinimize: 	Step increased G by 4.336809e-17, reducing alpha to 4.452336e-21.
FluidMinimize: 	Step increased G by 4.336809e-17, reducing alpha to 4.452336e-22.
FluidMinimize: 	Step increased G by 5.377643e-17, reducing alpha to 4.452336e-23.
FluidMinimize: 	Step increased G by 3.989864e-17, reducing alpha to 4.452336e-24.
FluidMinimize: 	Step failed to reduce G after 6 attempts. Quitting step.
FluidMinimize: 	Undoing step.
FluidMinimize: 	Step failed along negative gradient direction.
FluidMinimize: Probably at roundoff error limit. (Stopping)

Fluid minimization # 3 changed total free energy by 2.602085e-17 at t[s]:  13052.33

-------------------- Electronic Minimization # 3 ---------------------
	FillingsUpdate:  mu: -0.173600000  nElectrons: 337.981185
ElecMinimize: Iter:   0  G: -1760.652064800137623  |grad|_K:  6.535e-06  alpha:  1.000e+00
	FillingsUpdate:  mu: -0.173600000  nElectrons: 338.016068
	SubspaceRotationAdjust: set factor to 0.0117
ElecMinimize: Iter:   1  G: -1760.652720052551786  |grad|_K:  3.525e-06  alpha:  2.934e-01  linmin:  6.198e-03  t[s]:  13694.55
	FillingsUpdate:  mu: -0.173600000  nElectrons: 338.001655
	SubspaceRotationAdjust: set factor to 0.0142
ElecMinimize: Iter:   2  G: -1760.652976781995676  |grad|_K:  2.036e-06  alpha:  3.942e-01  linmin:  2.070e-03  t[s]:  14147.50
	FillingsUpdate:  mu: -0.173600000  nElectrons: 338.001611
	SubspaceRotationAdjust: set factor to 0.0185
ElecMinimize: Iter:   3  G: -1760.653096893507609  |grad|_K:  1.716e-06  alpha:  5.472e-01  linmin: -6.071e-04  t[s]:  14600.89
	FillingsUpdate:  mu: -0.173600000  nElectrons: 338.006813
	SubspaceRotationAdjust: set factor to 0.0209
ElecMinimize: Iter:   4  G: -1760.653213470095125  |grad|_K:  1.945e-06  alpha:  7.406e-01  linmin:  1.308e-04  t[s]:  15056.54
	FillingsUpdate:  mu: -0.173600000  nElectrons: 337.997327
	SubspaceRotationAdjust: set factor to 0.0188
ElecMinimize: Iter:   5  G: -1760.653343862207066  |grad|_K:  1.951e-06  alpha:  6.476e-01  linmin:  9.124e-05  t[s]:  15506.45
	FillingsUpdate:  mu: -0.173600000  nElectrons: 338.008809
	SubspaceRotationAdjust: set factor to 0.0135
ElecMinimize: Iter:   6  G: -1760.653413317589411  |grad|_K:  1.625e-06  alpha:  3.450e-01  linmin:  1.894e-04  t[s]:  15956.84
	FillingsUpdate:  mu: -0.173600000  nElectrons: 338.004471
	SubspaceRotationAdjust: set factor to 0.0142
ElecMinimize: Iter:   7  G: -1760.653472728869474  |grad|_K:  9.758e-07  alpha:  4.236e-01  linmin:  2.664e-04  t[s]:  16408.68
	FillingsUpdate:  mu: -0.173600000  nElectrons: 338.003333
	SubspaceRotationAdjust: set factor to 0.016
ElecMinimize: Iter:   8  G: -1760.653496875917199  |grad|_K:  6.476e-07  alpha:  4.773e-01  linmin: -2.816e-05  t[s]:  16864.68
	FillingsUpdate:  mu: -0.173600000  nElectrons: 338.006057
	SubspaceRotationAdjust: set factor to 0.0165
ElecMinimize: Iter:   9  G: -1760.653507003986533  |grad|_K:  4.651e-07  alpha:  4.533e-01  linmin: -1.666e-05  t[s]:  17314.96
	FillingsUpdate:  mu: -0.173600000  nElectrons: 338.004172
	SubspaceRotationAdjust: set factor to 0.0165
ElecMinimize: Iter:  10  G: -1760.653512158200101  |grad|_K:  3.857e-07  alpha:  4.472e-01  linmin:  2.823e-05  t[s]:  17766.02
	FillingsUpdate:  mu: -0.173600000  nElectrons: 338.005606
	SubspaceRotationAdjust: set factor to 0.0189
ElecMinimize: Iter:  11  G: -1760.653516012528598  |grad|_K:  3.321e-07  alpha:  4.865e-01  linmin: -6.872e-05  t[s]:  18217.20
	FillingsUpdate:  mu: -0.173600000  nElectrons: 338.005586
	SubspaceRotationAdjust: set factor to 0.0227
ElecMinimize: Iter:  12  G: -1760.653519659691256  |grad|_K:  3.031e-07  alpha:  6.199e-01  linmin: -1.902e-06  t[s]:  18670.48
	FillingsUpdate:  mu: -0.173600000  nElectrons: 338.005093
	SubspaceRotationAdjust: set factor to 0.0266
ElecMinimize: Iter:  13  G: -1760.653523193093179  |grad|_K:  2.971e-07  alpha:  7.221e-01  linmin:  2.782e-06  t[s]:  19127.62
	FillingsUpdate:  mu: -0.173600000  nElectrons: 338.006841
	SubspaceRotationAdjust: set factor to 0.0228
ElecMinimize: Iter:  14  G: -1760.653525733883953  |grad|_K:  3.640e-07  alpha:  5.407e-01  linmin: -4.561e-06  t[s]:  19577.19
	FillingsUpdate:  mu: -0.173600000  nElectrons: 338.004935
	SubspaceRotationAdjust: set factor to 0.017
ElecMinimize: Iter:  15  G: -1760.653527614675795  |grad|_K:  2.733e-07  alpha:  2.662e-01  linmin: -1.882e-05  t[s]:  20033.20
	FillingsUpdate:  mu: -0.173600000  nElectrons: 338.005482
	SubspaceRotationAdjust: set factor to 0.0201
ElecMinimize: Iter:  16  G: -1760.653529692781376  |grad|_K:  2.139e-07  alpha:  5.219e-01  linmin:  1.353e-06  t[s]:  20484.02
	FillingsUpdate:  mu: -0.173600000  nElectrons: 338.005695
	SubspaceRotationAdjust: set factor to 0.0225
ElecMinimize: Iter:  17  G: -1760.653530894562664  |grad|_K:  1.797e-07  alpha:  4.932e-01  linmin: -1.303e-05  t[s]:  20932.58
	FillingsUpdate:  mu: -0.173600000  nElectrons: 338.004755
	SubspaceRotationAdjust: set factor to 0.0202
ElecMinimize: Iter:  18  G: -1760.653531538224797  |grad|_K:  1.593e-07  alpha:  3.746e-01  linmin: -1.653e-05  t[s]:  21387.59
	FillingsUpdate:  mu: -0.173600000  nElectrons: 338.005486
	SubspaceRotationAdjust: set factor to 0.0177
ElecMinimize: Iter:  19  G: -1760.653531990319152  |grad|_K:  1.216e-07  alpha:  3.335e-01  linmin:  3.615e-06  t[s]:  21841.61
	FillingsUpdate:  mu: -0.173600000  nElectrons: 338.005068
	SubspaceRotationAdjust: set factor to 0.0228
ElecMinimize: Iter:  20  G: -1760.653532394960394  |grad|_K:  9.622e-08  alpha:  5.114e-01  linmin: -1.764e-04  t[s]:  22294.25
	FillingsUpdate:  mu: -0.173600000  nElectrons: 338.004719
	SubspaceRotationAdjust: set factor to 0.0258
ElecMinimize: Iter:  21  G: -1760.653532701272070  |grad|_K:  1.020e-07  alpha:  6.183e-01  linmin:  4.541e-05  t[s]:  22747.03
	FillingsUpdate:  mu: -0.173600000  nElectrons: 338.005312
	SubspaceRotationAdjust: set factor to 0.0213
ElecMinimize: Iter:  22  G: -1760.653532915760252  |grad|_K:  1.130e-07  alpha:  3.876e-01  linmin: -1.822e-05  t[s]:  23198.93
	FillingsUpdate:  mu: -0.173600000  nElectrons: 338.004747
	SubspaceRotationAdjust: set factor to 0.0189
ElecMinimize: Iter:  23  G: -1760.653533156439380  |grad|_K:  8.723e-08  alpha:  3.531e-01  linmin: -1.058e-05  t[s]:  23651.11
	FillingsUpdate:  mu: -0.173600000  nElectrons: 338.004795
	SubspaceRotationAdjust: set factor to 0.0218
ElecMinimize: Iter:  24  G: -1760.653533378273778  |grad|_K:  6.854e-08  alpha:  5.445e-01  linmin: -9.077e-05  t[s]:  24102.41
	FillingsUpdate:  mu: -0.173600000  nElectrons: 338.004962
	SubspaceRotationAdjust: set factor to 0.023
ElecMinimize: Iter:  25  G: -1760.653533505160112  |grad|_K:  5.429e-08  alpha:  5.045e-01  linmin: -5.889e-05  t[s]:  24554.96
	FillingsUpdate:  mu: -0.173600000  nElectrons: 338.004668
	SubspaceRotationAdjust: set factor to 0.0192
ElecMinimize: Iter:  26  G: -1760.653533566093529  |grad|_K:  4.774e-08  alpha:  3.880e-01  linmin:  2.757e-06  t[s]:  25007.83
ElecMinimize: Converged (|Delta G|<1.732034e-07 for 2 iters).
Setting wave functions to eigenvectors of Hamiltonian

Electronic minimization # 3 changed total free energy by -2.303432e-05 at t[s]:  25028.08

---------------------- Fluid Minimization # 4 -----------------------
FluidMinimize: Iter:   0  G: -0.010083756110830  |grad|_K:  3.880e-04  alpha:  1.000e+00
FluidMinimize: 	Step increased G by 1.127570e-16, reducing alpha to 5.436386e-20.
FluidMinimize: 	Step increased G by 1.127570e-16, reducing alpha to 5.436386e-21.
FluidMinimize: 	Step increased G by 1.127570e-16, reducing alpha to 5.436386e-22.
FluidMinimize: 	Step increased G by 1.058181e-16, reducing alpha to 5.436386e-23.
FluidMinimize: 	Step increased G by 1.127570e-16, reducing alpha to 5.436386e-24.
FluidMinimize: 	Step increased G by 1.058181e-16, reducing alpha to 5.436386e-25.
FluidMinimize: 	Step failed to reduce G after 6 attempts. Quitting step.
FluidMinimize: 	Undoing step.
FluidMinimize: 	Step failed along negative gradient direction.
FluidMinimize: Probably at roundoff error limit. (Stopping)

Fluid minimization # 4 changed total free energy by 1.179612e-16 at t[s]:  25030.88

-------------------- Electronic Minimization # 4 ---------------------
	FillingsUpdate:  mu: -0.173600000  nElectrons: 338.062830
ElecMinimize: Iter:   0  G: -1760.652781260026813  |grad|_K:  9.678e-06  alpha:  1.000e+00
	FillingsUpdate:  mu: -0.173600000  nElectrons: 338.013032
	SubspaceRotationAdjust: set factor to 0.0138
ElecMinimize: Iter:   1  G: -1760.653510092927945  |grad|_K:  1.136e-06  alpha:  1.343e-01  linmin: -1.270e-01  t[s]:  25679.69
	FillingsUpdate:  mu: -0.173600000  nElectrons: 338.004909
	SubspaceRotationAdjust: set factor to 0.00788
ElecMinimize: Iter:   2  G: -1760.653524586839467  |grad|_K:  5.501e-07  alpha:  1.948e-01  linmin:  7.442e-05  t[s]:  26129.95
	FillingsUpdate:  mu: -0.173600000  nElectrons: 338.004248
	SubspaceRotationAdjust: set factor to 0.0125
ElecMinimize: Iter:   3  G: -1760.653529057901778  |grad|_K:  2.705e-07  alpha:  2.774e-01  linmin: -3.672e-04  t[s]:  26576.97
	FillingsUpdate:  mu: -0.173600000  nElectrons: 338.004763
	SubspaceRotationAdjust: set factor to 0.0141
ElecMinimize: Iter:   4  G: -1760.653530379319136  |grad|_K:  1.657e-07  alpha:  3.391e-01  linmin:  3.430e-04  t[s]:  27034.07
	FillingsUpdate:  mu: -0.173600000  nElectrons: 338.004736
	SubspaceRotationAdjust: set factor to 0.0192
ElecMinimize: Iter:   5  G: -1760.653531060151636  |grad|_K:  1.359e-07  alpha:  4.658e-01  linmin: -1.713e-04  t[s]:  27482.54
	FillingsUpdate:  mu: -0.173600000  nElectrons: 338.004466
	SubspaceRotationAdjust: set factor to 0.0232
ElecMinimize: Iter:   6  G: -1760.653531565302274  |grad|_K:  1.487e-07  alpha:  5.129e-01  linmin: -1.005e-05  t[s]:  27935.24
	FillingsUpdate:  mu: -0.173600000  nElectrons: 338.004498
	SubspaceRotationAdjust: set factor to 0.0261
ElecMinimize: Iter:   7  G: -1760.653532253460753  |grad|_K:  1.521e-07  alpha:  5.842e-01  linmin:  6.950e-06  t[s]:  28383.04
	FillingsUpdate:  mu: -0.173600000  nElectrons: 338.004483
	SubspaceRotationAdjust: set factor to 0.0274
ElecMinimize: Iter:   8  G: -1760.653532822765101  |grad|_K:  1.406e-07  alpha:  4.621e-01  linmin:  1.764e-05  t[s]:  28836.57
	FillingsUpdate:  mu: -0.173600000  nElectrons: 338.004655
	SubspaceRotationAdjust: set factor to 0.0276
ElecMinimize: Iter:   9  G: -1760.653533232813288  |grad|_K:  1.047e-07  alpha:  3.899e-01  linmin: -1.751e-05  t[s]:  29295.00
	FillingsUpdate:  mu: -0.173600000  nElectrons: 338.004471
	SubspaceRotationAdjust: set factor to 0.0269
ElecMinimize: Iter:  10  G: -1760.653533433172470  |grad|_K:  7.847e-08  alpha:  3.433e-01  linmin:  4.015e-05  t[s]:  29747.71
	FillingsUpdate:  mu: -0.173600000  nElectrons: 338.004864
	SubspaceRotationAdjust: set factor to 0.0226
ElecMinimize: Iter:  11  G: -1760.653533526011643  |grad|_K:  6.210e-08  alpha:  2.832e-01  linmin: -4.309e-05  t[s]:  30204.41
ElecMinimize: Converged (|Delta G|<2.303432e-07 for 2 iters).
Setting wave functions to eigenvectors of Hamiltonian

Electronic minimization # 4 changed total free energy by 4.008189e-08 at t[s]:  30224.17

Fluid<-->Electron self-consistency loop converged to 1.000000e-05 hartrees after 4 minimization pairs at t[s]:  30224.17.

# Ionic positions in lattice coordinates:
ion H   0.608722454960210   0.612288304417917   0.315287172820738 1
ion H   0.166651436891748   0.431777580894015   0.315484550767267 1
ion C   0.492130591436523   0.498485489394192   0.312068847534623 1
ion O   0.571472301947131   0.351476106451918   0.316004194300742 1
ion O   0.256632784373917   0.541743377040432   0.318267005095674 1
ion Pt   0.000000000000000   0.000000000000000  -0.155941670000000 0
ion Pt   0.500000000000000   0.500000000000000  -0.155941670000000 0
ion Pt   0.000000000000000   0.500000000000000  -0.155941670000000 0
ion Pt   0.500000000000000   0.000000000000000  -0.155941670000000 0
ion Pt   0.750000000000000   0.250000000000000  -0.077970830000000 0
ion Pt   0.250000000000000   0.750000000000000  -0.077970830000000 0
ion Pt   0.250000000000000   0.250000000000000  -0.077970830000000 0
ion Pt   0.750000000000000   0.750000000000000  -0.077970830000000 0
ion Pt   0.499996963949734   0.000020092568444   0.001830015431451 1
ion Pt   0.000004122934923  -0.000100777394836   0.001744725541560 1
ion Pt  -0.000206090437373   0.499988007809622   0.001663530956275 1
ion Pt   0.499659420939715   0.500350407672541   0.002162308697998 1
ion Pt   0.750515963315682   0.249296780819169   0.091695231392303 1
ion Pt   0.250435593369845   0.750166890051884   0.092023967884339 1
ion Pt   0.249895674690780   0.249359453359224   0.091844365895867 1
ion Pt   0.749945898187964   0.750814399776296   0.091998320475562 1
ion Pt   0.000058678083353   0.000011138436111   0.160001974281011 1
ion Pt   0.000688330636896   0.500146061262319   0.158844586154309 1
ion Pt   0.500010592833924   0.000323356243901   0.159953945166678 1
ion Pt   0.503377200046718   0.498739219205961   0.160556122600300 1


# Forces in Lattice coordinates:
force H   0.023235436204280   0.093694532200209  -0.038591654036206 1
force H  -0.084317557535938  -0.074704840945679   0.159162685379911 1
force C   0.040490371258470  -0.108394679694503   0.096081183777483 1
force O  -0.080280426578946   0.131628263596957  -0.070896743107281 1
force O   0.026674164248529  -0.096303928699976   0.020838495731609 1
force Pt   0.000236856473945  -0.000675723533786   0.058677872089777 0
force Pt   0.001360484677125  -0.000901033334439   0.071510227250917 0
force Pt  -0.001196047400534  -0.000372729127969   0.066095868247983 0
force Pt   0.000121202025889   0.000176402451381   0.066448756437085 0
force Pt  -0.004378897288494   0.005679950507963  -0.550783395033066 0
force Pt   0.001396181252917  -0.000957525058530  -0.545180269007862 0
force Pt   0.003353458859406   0.003697258284384  -0.547462646791877 0
force Pt  -0.002555108313132  -0.001761121693048  -0.544528293720619 0
force Pt  -0.000948009068241  -0.002045478185287   0.187492361744843 1
force Pt   0.000839082609601  -0.001218355375735   0.196705085299446 1
force Pt  -0.001003248643150   0.001198450165827   0.181906512404532 1
force Pt  -0.001133628908373   0.000820498578913   0.217785116239749 1
force Pt   0.001534935471503  -0.005908464023763  -0.037908773343615 1
force Pt   0.010996241796363  -0.007318440977259  -0.001976306293304 1
force Pt   0.007308185865529   0.003221653136263  -0.026030512227123 1
force Pt  -0.001634917226483   0.000544981799439  -0.015458734137322 1
force Pt   0.003113401206286  -0.004469464290334   0.274094433553284 1
force Pt   0.007841155491750  -0.002193359368013   0.242012339830582 1
force Pt  -0.000830336950910   0.000189174815687   0.271123993950945 1
force Pt   0.006305708199373  -0.005632277444676   0.308968072310218 1

# Energy components:
   A_diel =       -0.0101159334269880
   Eewald =    13067.5746271063107997
       EH =    14680.9016887878024136
     Eloc =   -29890.1524666111072293
      Enl =      -15.6234429443913037
      Exc =     -575.8470292429924484
 Exc_core =      324.9917351703575719
       KE =      589.0750182408872888
  MuShift =       -0.0001672140258389
-------------------------------------
     Etot =    -1819.0901526405848472
       TS =        0.2410253371824777
-------------------------------------
        F =    -1819.3311779777673109
      muN =      -58.6776444517557749
-------------------------------------
        G =    -1760.6535335260116426

IonicMinimize: Iter:   0  G: -1760.653533526011643  |grad|_K:  4.202e-03  t[s]:  30277.40
IonicMinimize: None of the convergence criteria satisfied after 0 iterations.

#--- Lowdin population analysis ---
# oxidation-state H +0.234 +0.452
# oxidation-state C +0.394
# oxidation-state O -0.341 -0.377
# oxidation-state Pt +0.067 +0.070 +0.073 +0.067 -0.049 -0.049 -0.048 -0.049 +0.005 +0.006 +0.007 +0.003 -0.038 -0.042 -0.044 -0.046 +0.064 +0.032 +0.063 -0.020


Dumping '110_4-Solvated.ionpos' ... done
Dumping '110_4-Solvated.n' ... done
Dumping '110_4-Solvated.eigStats' ... 
	eMin: -2.127935 at state 0 ( [ +0.000000 +0.000000 +0.000000 ] spin 0 )
	HOMO: -0.174568 at state 4 ( [ +0.250000 +0.250000 +0.000000 ] spin 0 )
	mu  : -0.173600
	LUMO: -0.173366 at state 6 ( [ +0.250000 -0.250000 +0.000000 ] spin 0 )
	eMax: +0.351783 at state 9 ( [ +0.500000 +0.500000 +0.000000 ] spin 0 )
	HOMO-LUMO gap: +0.001202
	Optical gap  : +0.001273 at state 4 ( [ +0.250000 +0.250000 +0.000000 ] spin 0 )
Dumping '110_4-Solvated.Ecomponents' ... done
End date and time: Mon Apr 29 22:06:14 2019  (Duration: 0-8:25:43.90)
Done!
